
 **** DERIVATIVE DATABASE ****    
+DDB, Version number    100401

 perovskite phonons on 4 4 4 mesh                                                                                                                                                                                                                                        

    usepaw         0
     natom         5
      nkpt       512
    nsppol         1
      nsym        48
    ntypat         3
    occopt         1
     nband        20
     acell  0.75323692530000D+01  0.75323692530000D+01  0.75323692530000D+01
       amu  0.13732700000000D+03  0.47880000000000D+02  0.15999400000000D+02
   dilatmx  0.10000000000000D+01
      ecut  0.60000000000000D+02
    ecutsm  0.00000000000000D+00
     intxc         0
      iscf         5
       ixc        23
       kpt  0.62500000000000D-01  0.62500000000000D-01  0.62500000000000D-01
            0.18750000000000D+00  0.62500000000000D-01  0.62500000000000D-01
            0.31250000000000D+00  0.62500000000000D-01  0.62500000000000D-01
            0.43750000000000D+00  0.62500000000000D-01  0.62500000000000D-01
           -0.43750000000000D+00  0.62500000000000D-01  0.62500000000000D-01
           -0.31250000000000D+00  0.62500000000000D-01  0.62500000000000D-01
           -0.18750000000000D+00  0.62500000000000D-01  0.62500000000000D-01
           -0.62500000000000D-01  0.62500000000000D-01  0.62500000000000D-01
            0.62500000000000D-01  0.18750000000000D+00  0.62500000000000D-01
            0.18750000000000D+00  0.18750000000000D+00  0.62500000000000D-01
            0.31250000000000D+00  0.18750000000000D+00  0.62500000000000D-01
            0.43750000000000D+00  0.18750000000000D+00  0.62500000000000D-01
           -0.43750000000000D+00  0.18750000000000D+00  0.62500000000000D-01
           -0.31250000000000D+00  0.18750000000000D+00  0.62500000000000D-01
           -0.18750000000000D+00  0.18750000000000D+00  0.62500000000000D-01
           -0.62500000000000D-01  0.18750000000000D+00  0.62500000000000D-01
            0.62500000000000D-01  0.31250000000000D+00  0.62500000000000D-01
            0.18750000000000D+00  0.31250000000000D+00  0.62500000000000D-01
            0.31250000000000D+00  0.31250000000000D+00  0.62500000000000D-01
            0.43750000000000D+00  0.31250000000000D+00  0.62500000000000D-01
           -0.43750000000000D+00  0.31250000000000D+00  0.62500000000000D-01
           -0.31250000000000D+00  0.31250000000000D+00  0.62500000000000D-01
           -0.18750000000000D+00  0.31250000000000D+00  0.62500000000000D-01
           -0.62500000000000D-01  0.31250000000000D+00  0.62500000000000D-01
            0.62500000000000D-01  0.43750000000000D+00  0.62500000000000D-01
            0.18750000000000D+00  0.43750000000000D+00  0.62500000000000D-01
            0.31250000000000D+00  0.43750000000000D+00  0.62500000000000D-01
            0.43750000000000D+00  0.43750000000000D+00  0.62500000000000D-01
           -0.43750000000000D+00  0.43750000000000D+00  0.62500000000000D-01
           -0.31250000000000D+00  0.43750000000000D+00  0.62500000000000D-01
           -0.18750000000000D+00  0.43750000000000D+00  0.62500000000000D-01
           -0.62500000000000D-01  0.43750000000000D+00  0.62500000000000D-01
            0.62500000000000D-01 -0.43750000000000D+00  0.62500000000000D-01
            0.18750000000000D+00 -0.43750000000000D+00  0.62500000000000D-01
            0.31250000000000D+00 -0.43750000000000D+00  0.62500000000000D-01
            0.43750000000000D+00 -0.43750000000000D+00  0.62500000000000D-01
           -0.43750000000000D+00 -0.43750000000000D+00  0.62500000000000D-01
           -0.31250000000000D+00 -0.43750000000000D+00  0.62500000000000D-01
           -0.18750000000000D+00 -0.43750000000000D+00  0.62500000000000D-01
           -0.62500000000000D-01 -0.43750000000000D+00  0.62500000000000D-01
            0.62500000000000D-01 -0.31250000000000D+00  0.62500000000000D-01
            0.18750000000000D+00 -0.31250000000000D+00  0.62500000000000D-01
            0.31250000000000D+00 -0.31250000000000D+00  0.62500000000000D-01
            0.43750000000000D+00 -0.31250000000000D+00  0.62500000000000D-01
           -0.43750000000000D+00 -0.31250000000000D+00  0.62500000000000D-01
           -0.31250000000000D+00 -0.31250000000000D+00  0.62500000000000D-01
           -0.18750000000000D+00 -0.31250000000000D+00  0.62500000000000D-01
           -0.62500000000000D-01 -0.31250000000000D+00  0.62500000000000D-01
            0.62500000000000D-01 -0.18750000000000D+00  0.62500000000000D-01
            0.18750000000000D+00 -0.18750000000000D+00  0.62500000000000D-01
            0.31250000000000D+00 -0.18750000000000D+00  0.62500000000000D-01
            0.43750000000000D+00 -0.18750000000000D+00  0.62500000000000D-01
           -0.43750000000000D+00 -0.18750000000000D+00  0.62500000000000D-01
           -0.31250000000000D+00 -0.18750000000000D+00  0.62500000000000D-01
           -0.18750000000000D+00 -0.18750000000000D+00  0.62500000000000D-01
           -0.62500000000000D-01 -0.18750000000000D+00  0.62500000000000D-01
            0.62500000000000D-01 -0.62500000000000D-01  0.62500000000000D-01
            0.18750000000000D+00 -0.62500000000000D-01  0.62500000000000D-01
            0.31250000000000D+00 -0.62500000000000D-01  0.62500000000000D-01
            0.43750000000000D+00 -0.62500000000000D-01  0.62500000000000D-01
           -0.43750000000000D+00 -0.62500000000000D-01  0.62500000000000D-01
           -0.31250000000000D+00 -0.62500000000000D-01  0.62500000000000D-01
           -0.18750000000000D+00 -0.62500000000000D-01  0.62500000000000D-01
           -0.62500000000000D-01 -0.62500000000000D-01  0.62500000000000D-01
            0.62500000000000D-01  0.62500000000000D-01  0.18750000000000D+00
            0.18750000000000D+00  0.62500000000000D-01  0.18750000000000D+00
            0.31250000000000D+00  0.62500000000000D-01  0.18750000000000D+00
            0.43750000000000D+00  0.62500000000000D-01  0.18750000000000D+00
           -0.43750000000000D+00  0.62500000000000D-01  0.18750000000000D+00
           -0.31250000000000D+00  0.62500000000000D-01  0.18750000000000D+00
           -0.18750000000000D+00  0.62500000000000D-01  0.18750000000000D+00
           -0.62500000000000D-01  0.62500000000000D-01  0.18750000000000D+00
            0.62500000000000D-01  0.18750000000000D+00  0.18750000000000D+00
            0.18750000000000D+00  0.18750000000000D+00  0.18750000000000D+00
            0.31250000000000D+00  0.18750000000000D+00  0.18750000000000D+00
            0.43750000000000D+00  0.18750000000000D+00  0.18750000000000D+00
           -0.43750000000000D+00  0.18750000000000D+00  0.18750000000000D+00
           -0.31250000000000D+00  0.18750000000000D+00  0.18750000000000D+00
           -0.18750000000000D+00  0.18750000000000D+00  0.18750000000000D+00
           -0.62500000000000D-01  0.18750000000000D+00  0.18750000000000D+00
            0.62500000000000D-01  0.31250000000000D+00  0.18750000000000D+00
            0.18750000000000D+00  0.31250000000000D+00  0.18750000000000D+00
            0.31250000000000D+00  0.31250000000000D+00  0.18750000000000D+00
            0.43750000000000D+00  0.31250000000000D+00  0.18750000000000D+00
           -0.43750000000000D+00  0.31250000000000D+00  0.18750000000000D+00
           -0.31250000000000D+00  0.31250000000000D+00  0.18750000000000D+00
           -0.18750000000000D+00  0.31250000000000D+00  0.18750000000000D+00
           -0.62500000000000D-01  0.31250000000000D+00  0.18750000000000D+00
            0.62500000000000D-01  0.43750000000000D+00  0.18750000000000D+00
            0.18750000000000D+00  0.43750000000000D+00  0.18750000000000D+00
            0.31250000000000D+00  0.43750000000000D+00  0.18750000000000D+00
            0.43750000000000D+00  0.43750000000000D+00  0.18750000000000D+00
           -0.43750000000000D+00  0.43750000000000D+00  0.18750000000000D+00
           -0.31250000000000D+00  0.43750000000000D+00  0.18750000000000D+00
           -0.18750000000000D+00  0.43750000000000D+00  0.18750000000000D+00
           -0.62500000000000D-01  0.43750000000000D+00  0.18750000000000D+00
            0.62500000000000D-01 -0.43750000000000D+00  0.18750000000000D+00
            0.18750000000000D+00 -0.43750000000000D+00  0.18750000000000D+00
            0.31250000000000D+00 -0.43750000000000D+00  0.18750000000000D+00
            0.43750000000000D+00 -0.43750000000000D+00  0.18750000000000D+00
           -0.43750000000000D+00 -0.43750000000000D+00  0.18750000000000D+00
           -0.31250000000000D+00 -0.43750000000000D+00  0.18750000000000D+00
           -0.18750000000000D+00 -0.43750000000000D+00  0.18750000000000D+00
           -0.62500000000000D-01 -0.43750000000000D+00  0.18750000000000D+00
            0.62500000000000D-01 -0.31250000000000D+00  0.18750000000000D+00
            0.18750000000000D+00 -0.31250000000000D+00  0.18750000000000D+00
            0.31250000000000D+00 -0.31250000000000D+00  0.18750000000000D+00
            0.43750000000000D+00 -0.31250000000000D+00  0.18750000000000D+00
           -0.43750000000000D+00 -0.31250000000000D+00  0.18750000000000D+00
           -0.31250000000000D+00 -0.31250000000000D+00  0.18750000000000D+00
           -0.18750000000000D+00 -0.31250000000000D+00  0.18750000000000D+00
           -0.62500000000000D-01 -0.31250000000000D+00  0.18750000000000D+00
            0.62500000000000D-01 -0.18750000000000D+00  0.18750000000000D+00
            0.18750000000000D+00 -0.18750000000000D+00  0.18750000000000D+00
            0.31250000000000D+00 -0.18750000000000D+00  0.18750000000000D+00
            0.43750000000000D+00 -0.18750000000000D+00  0.18750000000000D+00
           -0.43750000000000D+00 -0.18750000000000D+00  0.18750000000000D+00
           -0.31250000000000D+00 -0.18750000000000D+00  0.18750000000000D+00
           -0.18750000000000D+00 -0.18750000000000D+00  0.18750000000000D+00
           -0.62500000000000D-01 -0.18750000000000D+00  0.18750000000000D+00
            0.62500000000000D-01 -0.62500000000000D-01  0.18750000000000D+00
            0.18750000000000D+00 -0.62500000000000D-01  0.18750000000000D+00
            0.31250000000000D+00 -0.62500000000000D-01  0.18750000000000D+00
            0.43750000000000D+00 -0.62500000000000D-01  0.18750000000000D+00
           -0.43750000000000D+00 -0.62500000000000D-01  0.18750000000000D+00
           -0.31250000000000D+00 -0.62500000000000D-01  0.18750000000000D+00
           -0.18750000000000D+00 -0.62500000000000D-01  0.18750000000000D+00
           -0.62500000000000D-01 -0.62500000000000D-01  0.18750000000000D+00
            0.62500000000000D-01  0.62500000000000D-01  0.31250000000000D+00
            0.18750000000000D+00  0.62500000000000D-01  0.31250000000000D+00
            0.31250000000000D+00  0.62500000000000D-01  0.31250000000000D+00
            0.43750000000000D+00  0.62500000000000D-01  0.31250000000000D+00
           -0.43750000000000D+00  0.62500000000000D-01  0.31250000000000D+00
           -0.31250000000000D+00  0.62500000000000D-01  0.31250000000000D+00
           -0.18750000000000D+00  0.62500000000000D-01  0.31250000000000D+00
           -0.62500000000000D-01  0.62500000000000D-01  0.31250000000000D+00
            0.62500000000000D-01  0.18750000000000D+00  0.31250000000000D+00
            0.18750000000000D+00  0.18750000000000D+00  0.31250000000000D+00
            0.31250000000000D+00  0.18750000000000D+00  0.31250000000000D+00
            0.43750000000000D+00  0.18750000000000D+00  0.31250000000000D+00
           -0.43750000000000D+00  0.18750000000000D+00  0.31250000000000D+00
           -0.31250000000000D+00  0.18750000000000D+00  0.31250000000000D+00
           -0.18750000000000D+00  0.18750000000000D+00  0.31250000000000D+00
           -0.62500000000000D-01  0.18750000000000D+00  0.31250000000000D+00
            0.62500000000000D-01  0.31250000000000D+00  0.31250000000000D+00
            0.18750000000000D+00  0.31250000000000D+00  0.31250000000000D+00
            0.31250000000000D+00  0.31250000000000D+00  0.31250000000000D+00
            0.43750000000000D+00  0.31250000000000D+00  0.31250000000000D+00
           -0.43750000000000D+00  0.31250000000000D+00  0.31250000000000D+00
           -0.31250000000000D+00  0.31250000000000D+00  0.31250000000000D+00
           -0.18750000000000D+00  0.31250000000000D+00  0.31250000000000D+00
           -0.62500000000000D-01  0.31250000000000D+00  0.31250000000000D+00
            0.62500000000000D-01  0.43750000000000D+00  0.31250000000000D+00
            0.18750000000000D+00  0.43750000000000D+00  0.31250000000000D+00
            0.31250000000000D+00  0.43750000000000D+00  0.31250000000000D+00
            0.43750000000000D+00  0.43750000000000D+00  0.31250000000000D+00
           -0.43750000000000D+00  0.43750000000000D+00  0.31250000000000D+00
           -0.31250000000000D+00  0.43750000000000D+00  0.31250000000000D+00
           -0.18750000000000D+00  0.43750000000000D+00  0.31250000000000D+00
           -0.62500000000000D-01  0.43750000000000D+00  0.31250000000000D+00
            0.62500000000000D-01 -0.43750000000000D+00  0.31250000000000D+00
            0.18750000000000D+00 -0.43750000000000D+00  0.31250000000000D+00
            0.31250000000000D+00 -0.43750000000000D+00  0.31250000000000D+00
            0.43750000000000D+00 -0.43750000000000D+00  0.31250000000000D+00
           -0.43750000000000D+00 -0.43750000000000D+00  0.31250000000000D+00
           -0.31250000000000D+00 -0.43750000000000D+00  0.31250000000000D+00
           -0.18750000000000D+00 -0.43750000000000D+00  0.31250000000000D+00
           -0.62500000000000D-01 -0.43750000000000D+00  0.31250000000000D+00
            0.62500000000000D-01 -0.31250000000000D+00  0.31250000000000D+00
            0.18750000000000D+00 -0.31250000000000D+00  0.31250000000000D+00
            0.31250000000000D+00 -0.31250000000000D+00  0.31250000000000D+00
            0.43750000000000D+00 -0.31250000000000D+00  0.31250000000000D+00
           -0.43750000000000D+00 -0.31250000000000D+00  0.31250000000000D+00
           -0.31250000000000D+00 -0.31250000000000D+00  0.31250000000000D+00
           -0.18750000000000D+00 -0.31250000000000D+00  0.31250000000000D+00
           -0.62500000000000D-01 -0.31250000000000D+00  0.31250000000000D+00
            0.62500000000000D-01 -0.18750000000000D+00  0.31250000000000D+00
            0.18750000000000D+00 -0.18750000000000D+00  0.31250000000000D+00
            0.31250000000000D+00 -0.18750000000000D+00  0.31250000000000D+00
            0.43750000000000D+00 -0.18750000000000D+00  0.31250000000000D+00
           -0.43750000000000D+00 -0.18750000000000D+00  0.31250000000000D+00
           -0.31250000000000D+00 -0.18750000000000D+00  0.31250000000000D+00
           -0.18750000000000D+00 -0.18750000000000D+00  0.31250000000000D+00
           -0.62500000000000D-01 -0.18750000000000D+00  0.31250000000000D+00
            0.62500000000000D-01 -0.62500000000000D-01  0.31250000000000D+00
            0.18750000000000D+00 -0.62500000000000D-01  0.31250000000000D+00
            0.31250000000000D+00 -0.62500000000000D-01  0.31250000000000D+00
            0.43750000000000D+00 -0.62500000000000D-01  0.31250000000000D+00
           -0.43750000000000D+00 -0.62500000000000D-01  0.31250000000000D+00
           -0.31250000000000D+00 -0.62500000000000D-01  0.31250000000000D+00
           -0.18750000000000D+00 -0.62500000000000D-01  0.31250000000000D+00
           -0.62500000000000D-01 -0.62500000000000D-01  0.31250000000000D+00
            0.62500000000000D-01  0.62500000000000D-01  0.43750000000000D+00
            0.18750000000000D+00  0.62500000000000D-01  0.43750000000000D+00
            0.31250000000000D+00  0.62500000000000D-01  0.43750000000000D+00
            0.43750000000000D+00  0.62500000000000D-01  0.43750000000000D+00
           -0.43750000000000D+00  0.62500000000000D-01  0.43750000000000D+00
           -0.31250000000000D+00  0.62500000000000D-01  0.43750000000000D+00
           -0.18750000000000D+00  0.62500000000000D-01  0.43750000000000D+00
           -0.62500000000000D-01  0.62500000000000D-01  0.43750000000000D+00
            0.62500000000000D-01  0.18750000000000D+00  0.43750000000000D+00
            0.18750000000000D+00  0.18750000000000D+00  0.43750000000000D+00
            0.31250000000000D+00  0.18750000000000D+00  0.43750000000000D+00
            0.43750000000000D+00  0.18750000000000D+00  0.43750000000000D+00
           -0.43750000000000D+00  0.18750000000000D+00  0.43750000000000D+00
           -0.31250000000000D+00  0.18750000000000D+00  0.43750000000000D+00
           -0.18750000000000D+00  0.18750000000000D+00  0.43750000000000D+00
           -0.62500000000000D-01  0.18750000000000D+00  0.43750000000000D+00
            0.62500000000000D-01  0.31250000000000D+00  0.43750000000000D+00
            0.18750000000000D+00  0.31250000000000D+00  0.43750000000000D+00
            0.31250000000000D+00  0.31250000000000D+00  0.43750000000000D+00
            0.43750000000000D+00  0.31250000000000D+00  0.43750000000000D+00
           -0.43750000000000D+00  0.31250000000000D+00  0.43750000000000D+00
           -0.31250000000000D+00  0.31250000000000D+00  0.43750000000000D+00
           -0.18750000000000D+00  0.31250000000000D+00  0.43750000000000D+00
           -0.62500000000000D-01  0.31250000000000D+00  0.43750000000000D+00
            0.62500000000000D-01  0.43750000000000D+00  0.43750000000000D+00
            0.18750000000000D+00  0.43750000000000D+00  0.43750000000000D+00
            0.31250000000000D+00  0.43750000000000D+00  0.43750000000000D+00
            0.43750000000000D+00  0.43750000000000D+00  0.43750000000000D+00
           -0.43750000000000D+00  0.43750000000000D+00  0.43750000000000D+00
           -0.31250000000000D+00  0.43750000000000D+00  0.43750000000000D+00
           -0.18750000000000D+00  0.43750000000000D+00  0.43750000000000D+00
           -0.62500000000000D-01  0.43750000000000D+00  0.43750000000000D+00
            0.62500000000000D-01 -0.43750000000000D+00  0.43750000000000D+00
            0.18750000000000D+00 -0.43750000000000D+00  0.43750000000000D+00
            0.31250000000000D+00 -0.43750000000000D+00  0.43750000000000D+00
            0.43750000000000D+00 -0.43750000000000D+00  0.43750000000000D+00
           -0.43750000000000D+00 -0.43750000000000D+00  0.43750000000000D+00
           -0.31250000000000D+00 -0.43750000000000D+00  0.43750000000000D+00
           -0.18750000000000D+00 -0.43750000000000D+00  0.43750000000000D+00
           -0.62500000000000D-01 -0.43750000000000D+00  0.43750000000000D+00
            0.62500000000000D-01 -0.31250000000000D+00  0.43750000000000D+00
            0.18750000000000D+00 -0.31250000000000D+00  0.43750000000000D+00
            0.31250000000000D+00 -0.31250000000000D+00  0.43750000000000D+00
            0.43750000000000D+00 -0.31250000000000D+00  0.43750000000000D+00
           -0.43750000000000D+00 -0.31250000000000D+00  0.43750000000000D+00
           -0.31250000000000D+00 -0.31250000000000D+00  0.43750000000000D+00
           -0.18750000000000D+00 -0.31250000000000D+00  0.43750000000000D+00
           -0.62500000000000D-01 -0.31250000000000D+00  0.43750000000000D+00
            0.62500000000000D-01 -0.18750000000000D+00  0.43750000000000D+00
            0.18750000000000D+00 -0.18750000000000D+00  0.43750000000000D+00
            0.31250000000000D+00 -0.18750000000000D+00  0.43750000000000D+00
            0.43750000000000D+00 -0.18750000000000D+00  0.43750000000000D+00
           -0.43750000000000D+00 -0.18750000000000D+00  0.43750000000000D+00
           -0.31250000000000D+00 -0.18750000000000D+00  0.43750000000000D+00
           -0.18750000000000D+00 -0.18750000000000D+00  0.43750000000000D+00
           -0.62500000000000D-01 -0.18750000000000D+00  0.43750000000000D+00
            0.62500000000000D-01 -0.62500000000000D-01  0.43750000000000D+00
            0.18750000000000D+00 -0.62500000000000D-01  0.43750000000000D+00
            0.31250000000000D+00 -0.62500000000000D-01  0.43750000000000D+00
            0.43750000000000D+00 -0.62500000000000D-01  0.43750000000000D+00
           -0.43750000000000D+00 -0.62500000000000D-01  0.43750000000000D+00
           -0.31250000000000D+00 -0.62500000000000D-01  0.43750000000000D+00
           -0.18750000000000D+00 -0.62500000000000D-01  0.43750000000000D+00
           -0.62500000000000D-01 -0.62500000000000D-01  0.43750000000000D+00
            0.62500000000000D-01  0.62500000000000D-01 -0.43750000000000D+00
            0.18750000000000D+00  0.62500000000000D-01 -0.43750000000000D+00
            0.31250000000000D+00  0.62500000000000D-01 -0.43750000000000D+00
            0.43750000000000D+00  0.62500000000000D-01 -0.43750000000000D+00
           -0.43750000000000D+00  0.62500000000000D-01 -0.43750000000000D+00
           -0.31250000000000D+00  0.62500000000000D-01 -0.43750000000000D+00
           -0.18750000000000D+00  0.62500000000000D-01 -0.43750000000000D+00
           -0.62500000000000D-01  0.62500000000000D-01 -0.43750000000000D+00
            0.62500000000000D-01  0.18750000000000D+00 -0.43750000000000D+00
            0.18750000000000D+00  0.18750000000000D+00 -0.43750000000000D+00
            0.31250000000000D+00  0.18750000000000D+00 -0.43750000000000D+00
            0.43750000000000D+00  0.18750000000000D+00 -0.43750000000000D+00
           -0.43750000000000D+00  0.18750000000000D+00 -0.43750000000000D+00
           -0.31250000000000D+00  0.18750000000000D+00 -0.43750000000000D+00
           -0.18750000000000D+00  0.18750000000000D+00 -0.43750000000000D+00
           -0.62500000000000D-01  0.18750000000000D+00 -0.43750000000000D+00
            0.62500000000000D-01  0.31250000000000D+00 -0.43750000000000D+00
            0.18750000000000D+00  0.31250000000000D+00 -0.43750000000000D+00
            0.31250000000000D+00  0.31250000000000D+00 -0.43750000000000D+00
            0.43750000000000D+00  0.31250000000000D+00 -0.43750000000000D+00
           -0.43750000000000D+00  0.31250000000000D+00 -0.43750000000000D+00
           -0.31250000000000D+00  0.31250000000000D+00 -0.43750000000000D+00
           -0.18750000000000D+00  0.31250000000000D+00 -0.43750000000000D+00
           -0.62500000000000D-01  0.31250000000000D+00 -0.43750000000000D+00
            0.62500000000000D-01  0.43750000000000D+00 -0.43750000000000D+00
            0.18750000000000D+00  0.43750000000000D+00 -0.43750000000000D+00
            0.31250000000000D+00  0.43750000000000D+00 -0.43750000000000D+00
            0.43750000000000D+00  0.43750000000000D+00 -0.43750000000000D+00
           -0.43750000000000D+00  0.43750000000000D+00 -0.43750000000000D+00
           -0.31250000000000D+00  0.43750000000000D+00 -0.43750000000000D+00
           -0.18750000000000D+00  0.43750000000000D+00 -0.43750000000000D+00
           -0.62500000000000D-01  0.43750000000000D+00 -0.43750000000000D+00
            0.62500000000000D-01 -0.43750000000000D+00 -0.43750000000000D+00
            0.18750000000000D+00 -0.43750000000000D+00 -0.43750000000000D+00
            0.31250000000000D+00 -0.43750000000000D+00 -0.43750000000000D+00
            0.43750000000000D+00 -0.43750000000000D+00 -0.43750000000000D+00
           -0.43750000000000D+00 -0.43750000000000D+00 -0.43750000000000D+00
           -0.31250000000000D+00 -0.43750000000000D+00 -0.43750000000000D+00
           -0.18750000000000D+00 -0.43750000000000D+00 -0.43750000000000D+00
           -0.62500000000000D-01 -0.43750000000000D+00 -0.43750000000000D+00
            0.62500000000000D-01 -0.31250000000000D+00 -0.43750000000000D+00
            0.18750000000000D+00 -0.31250000000000D+00 -0.43750000000000D+00
            0.31250000000000D+00 -0.31250000000000D+00 -0.43750000000000D+00
            0.43750000000000D+00 -0.31250000000000D+00 -0.43750000000000D+00
           -0.43750000000000D+00 -0.31250000000000D+00 -0.43750000000000D+00
           -0.31250000000000D+00 -0.31250000000000D+00 -0.43750000000000D+00
           -0.18750000000000D+00 -0.31250000000000D+00 -0.43750000000000D+00
           -0.62500000000000D-01 -0.31250000000000D+00 -0.43750000000000D+00
            0.62500000000000D-01 -0.18750000000000D+00 -0.43750000000000D+00
            0.18750000000000D+00 -0.18750000000000D+00 -0.43750000000000D+00
            0.31250000000000D+00 -0.18750000000000D+00 -0.43750000000000D+00
            0.43750000000000D+00 -0.18750000000000D+00 -0.43750000000000D+00
           -0.43750000000000D+00 -0.18750000000000D+00 -0.43750000000000D+00
           -0.31250000000000D+00 -0.18750000000000D+00 -0.43750000000000D+00
           -0.18750000000000D+00 -0.18750000000000D+00 -0.43750000000000D+00
           -0.62500000000000D-01 -0.18750000000000D+00 -0.43750000000000D+00
            0.62500000000000D-01 -0.62500000000000D-01 -0.43750000000000D+00
            0.18750000000000D+00 -0.62500000000000D-01 -0.43750000000000D+00
            0.31250000000000D+00 -0.62500000000000D-01 -0.43750000000000D+00
            0.43750000000000D+00 -0.62500000000000D-01 -0.43750000000000D+00
           -0.43750000000000D+00 -0.62500000000000D-01 -0.43750000000000D+00
           -0.31250000000000D+00 -0.62500000000000D-01 -0.43750000000000D+00
           -0.18750000000000D+00 -0.62500000000000D-01 -0.43750000000000D+00
           -0.62500000000000D-01 -0.62500000000000D-01 -0.43750000000000D+00
            0.62500000000000D-01  0.62500000000000D-01 -0.31250000000000D+00
            0.18750000000000D+00  0.62500000000000D-01 -0.31250000000000D+00
            0.31250000000000D+00  0.62500000000000D-01 -0.31250000000000D+00
            0.43750000000000D+00  0.62500000000000D-01 -0.31250000000000D+00
           -0.43750000000000D+00  0.62500000000000D-01 -0.31250000000000D+00
           -0.31250000000000D+00  0.62500000000000D-01 -0.31250000000000D+00
           -0.18750000000000D+00  0.62500000000000D-01 -0.31250000000000D+00
           -0.62500000000000D-01  0.62500000000000D-01 -0.31250000000000D+00
            0.62500000000000D-01  0.18750000000000D+00 -0.31250000000000D+00
            0.18750000000000D+00  0.18750000000000D+00 -0.31250000000000D+00
            0.31250000000000D+00  0.18750000000000D+00 -0.31250000000000D+00
            0.43750000000000D+00  0.18750000000000D+00 -0.31250000000000D+00
           -0.43750000000000D+00  0.18750000000000D+00 -0.31250000000000D+00
           -0.31250000000000D+00  0.18750000000000D+00 -0.31250000000000D+00
           -0.18750000000000D+00  0.18750000000000D+00 -0.31250000000000D+00
           -0.62500000000000D-01  0.18750000000000D+00 -0.31250000000000D+00
            0.62500000000000D-01  0.31250000000000D+00 -0.31250000000000D+00
            0.18750000000000D+00  0.31250000000000D+00 -0.31250000000000D+00
            0.31250000000000D+00  0.31250000000000D+00 -0.31250000000000D+00
            0.43750000000000D+00  0.31250000000000D+00 -0.31250000000000D+00
           -0.43750000000000D+00  0.31250000000000D+00 -0.31250000000000D+00
           -0.31250000000000D+00  0.31250000000000D+00 -0.31250000000000D+00
           -0.18750000000000D+00  0.31250000000000D+00 -0.31250000000000D+00
           -0.62500000000000D-01  0.31250000000000D+00 -0.31250000000000D+00
            0.62500000000000D-01  0.43750000000000D+00 -0.31250000000000D+00
            0.18750000000000D+00  0.43750000000000D+00 -0.31250000000000D+00
            0.31250000000000D+00  0.43750000000000D+00 -0.31250000000000D+00
            0.43750000000000D+00  0.43750000000000D+00 -0.31250000000000D+00
           -0.43750000000000D+00  0.43750000000000D+00 -0.31250000000000D+00
           -0.31250000000000D+00  0.43750000000000D+00 -0.31250000000000D+00
           -0.18750000000000D+00  0.43750000000000D+00 -0.31250000000000D+00
           -0.62500000000000D-01  0.43750000000000D+00 -0.31250000000000D+00
            0.62500000000000D-01 -0.43750000000000D+00 -0.31250000000000D+00
            0.18750000000000D+00 -0.43750000000000D+00 -0.31250000000000D+00
            0.31250000000000D+00 -0.43750000000000D+00 -0.31250000000000D+00
            0.43750000000000D+00 -0.43750000000000D+00 -0.31250000000000D+00
           -0.43750000000000D+00 -0.43750000000000D+00 -0.31250000000000D+00
           -0.31250000000000D+00 -0.43750000000000D+00 -0.31250000000000D+00
           -0.18750000000000D+00 -0.43750000000000D+00 -0.31250000000000D+00
           -0.62500000000000D-01 -0.43750000000000D+00 -0.31250000000000D+00
            0.62500000000000D-01 -0.31250000000000D+00 -0.31250000000000D+00
            0.18750000000000D+00 -0.31250000000000D+00 -0.31250000000000D+00
            0.31250000000000D+00 -0.31250000000000D+00 -0.31250000000000D+00
            0.43750000000000D+00 -0.31250000000000D+00 -0.31250000000000D+00
           -0.43750000000000D+00 -0.31250000000000D+00 -0.31250000000000D+00
           -0.31250000000000D+00 -0.31250000000000D+00 -0.31250000000000D+00
           -0.18750000000000D+00 -0.31250000000000D+00 -0.31250000000000D+00
           -0.62500000000000D-01 -0.31250000000000D+00 -0.31250000000000D+00
            0.62500000000000D-01 -0.18750000000000D+00 -0.31250000000000D+00
            0.18750000000000D+00 -0.18750000000000D+00 -0.31250000000000D+00
            0.31250000000000D+00 -0.18750000000000D+00 -0.31250000000000D+00
            0.43750000000000D+00 -0.18750000000000D+00 -0.31250000000000D+00
           -0.43750000000000D+00 -0.18750000000000D+00 -0.31250000000000D+00
           -0.31250000000000D+00 -0.18750000000000D+00 -0.31250000000000D+00
           -0.18750000000000D+00 -0.18750000000000D+00 -0.31250000000000D+00
           -0.62500000000000D-01 -0.18750000000000D+00 -0.31250000000000D+00
            0.62500000000000D-01 -0.62500000000000D-01 -0.31250000000000D+00
            0.18750000000000D+00 -0.62500000000000D-01 -0.31250000000000D+00
            0.31250000000000D+00 -0.62500000000000D-01 -0.31250000000000D+00
            0.43750000000000D+00 -0.62500000000000D-01 -0.31250000000000D+00
           -0.43750000000000D+00 -0.62500000000000D-01 -0.31250000000000D+00
           -0.31250000000000D+00 -0.62500000000000D-01 -0.31250000000000D+00
           -0.18750000000000D+00 -0.62500000000000D-01 -0.31250000000000D+00
           -0.62500000000000D-01 -0.62500000000000D-01 -0.31250000000000D+00
            0.62500000000000D-01  0.62500000000000D-01 -0.18750000000000D+00
            0.18750000000000D+00  0.62500000000000D-01 -0.18750000000000D+00
            0.31250000000000D+00  0.62500000000000D-01 -0.18750000000000D+00
            0.43750000000000D+00  0.62500000000000D-01 -0.18750000000000D+00
           -0.43750000000000D+00  0.62500000000000D-01 -0.18750000000000D+00
           -0.31250000000000D+00  0.62500000000000D-01 -0.18750000000000D+00
           -0.18750000000000D+00  0.62500000000000D-01 -0.18750000000000D+00
           -0.62500000000000D-01  0.62500000000000D-01 -0.18750000000000D+00
            0.62500000000000D-01  0.18750000000000D+00 -0.18750000000000D+00
            0.18750000000000D+00  0.18750000000000D+00 -0.18750000000000D+00
            0.31250000000000D+00  0.18750000000000D+00 -0.18750000000000D+00
            0.43750000000000D+00  0.18750000000000D+00 -0.18750000000000D+00
           -0.43750000000000D+00  0.18750000000000D+00 -0.18750000000000D+00
           -0.31250000000000D+00  0.18750000000000D+00 -0.18750000000000D+00
           -0.18750000000000D+00  0.18750000000000D+00 -0.18750000000000D+00
           -0.62500000000000D-01  0.18750000000000D+00 -0.18750000000000D+00
            0.62500000000000D-01  0.31250000000000D+00 -0.18750000000000D+00
            0.18750000000000D+00  0.31250000000000D+00 -0.18750000000000D+00
            0.31250000000000D+00  0.31250000000000D+00 -0.18750000000000D+00
            0.43750000000000D+00  0.31250000000000D+00 -0.18750000000000D+00
           -0.43750000000000D+00  0.31250000000000D+00 -0.18750000000000D+00
           -0.31250000000000D+00  0.31250000000000D+00 -0.18750000000000D+00
           -0.18750000000000D+00  0.31250000000000D+00 -0.18750000000000D+00
           -0.62500000000000D-01  0.31250000000000D+00 -0.18750000000000D+00
            0.62500000000000D-01  0.43750000000000D+00 -0.18750000000000D+00
            0.18750000000000D+00  0.43750000000000D+00 -0.18750000000000D+00
            0.31250000000000D+00  0.43750000000000D+00 -0.18750000000000D+00
            0.43750000000000D+00  0.43750000000000D+00 -0.18750000000000D+00
           -0.43750000000000D+00  0.43750000000000D+00 -0.18750000000000D+00
           -0.31250000000000D+00  0.43750000000000D+00 -0.18750000000000D+00
           -0.18750000000000D+00  0.43750000000000D+00 -0.18750000000000D+00
           -0.62500000000000D-01  0.43750000000000D+00 -0.18750000000000D+00
            0.62500000000000D-01 -0.43750000000000D+00 -0.18750000000000D+00
            0.18750000000000D+00 -0.43750000000000D+00 -0.18750000000000D+00
            0.31250000000000D+00 -0.43750000000000D+00 -0.18750000000000D+00
            0.43750000000000D+00 -0.43750000000000D+00 -0.18750000000000D+00
           -0.43750000000000D+00 -0.43750000000000D+00 -0.18750000000000D+00
           -0.31250000000000D+00 -0.43750000000000D+00 -0.18750000000000D+00
           -0.18750000000000D+00 -0.43750000000000D+00 -0.18750000000000D+00
           -0.62500000000000D-01 -0.43750000000000D+00 -0.18750000000000D+00
            0.62500000000000D-01 -0.31250000000000D+00 -0.18750000000000D+00
            0.18750000000000D+00 -0.31250000000000D+00 -0.18750000000000D+00
            0.31250000000000D+00 -0.31250000000000D+00 -0.18750000000000D+00
            0.43750000000000D+00 -0.31250000000000D+00 -0.18750000000000D+00
           -0.43750000000000D+00 -0.31250000000000D+00 -0.18750000000000D+00
           -0.31250000000000D+00 -0.31250000000000D+00 -0.18750000000000D+00
           -0.18750000000000D+00 -0.31250000000000D+00 -0.18750000000000D+00
           -0.62500000000000D-01 -0.31250000000000D+00 -0.18750000000000D+00
            0.62500000000000D-01 -0.18750000000000D+00 -0.18750000000000D+00
            0.18750000000000D+00 -0.18750000000000D+00 -0.18750000000000D+00
            0.31250000000000D+00 -0.18750000000000D+00 -0.18750000000000D+00
            0.43750000000000D+00 -0.18750000000000D+00 -0.18750000000000D+00
           -0.43750000000000D+00 -0.18750000000000D+00 -0.18750000000000D+00
           -0.31250000000000D+00 -0.18750000000000D+00 -0.18750000000000D+00
           -0.18750000000000D+00 -0.18750000000000D+00 -0.18750000000000D+00
           -0.62500000000000D-01 -0.18750000000000D+00 -0.18750000000000D+00
            0.62500000000000D-01 -0.62500000000000D-01 -0.18750000000000D+00
            0.18750000000000D+00 -0.62500000000000D-01 -0.18750000000000D+00
            0.31250000000000D+00 -0.62500000000000D-01 -0.18750000000000D+00
            0.43750000000000D+00 -0.62500000000000D-01 -0.18750000000000D+00
           -0.43750000000000D+00 -0.62500000000000D-01 -0.18750000000000D+00
           -0.31250000000000D+00 -0.62500000000000D-01 -0.18750000000000D+00
           -0.18750000000000D+00 -0.62500000000000D-01 -0.18750000000000D+00
           -0.62500000000000D-01 -0.62500000000000D-01 -0.18750000000000D+00
            0.62500000000000D-01  0.62500000000000D-01 -0.62500000000000D-01
            0.18750000000000D+00  0.62500000000000D-01 -0.62500000000000D-01
            0.31250000000000D+00  0.62500000000000D-01 -0.62500000000000D-01
            0.43750000000000D+00  0.62500000000000D-01 -0.62500000000000D-01
           -0.43750000000000D+00  0.62500000000000D-01 -0.62500000000000D-01
           -0.31250000000000D+00  0.62500000000000D-01 -0.62500000000000D-01
           -0.18750000000000D+00  0.62500000000000D-01 -0.62500000000000D-01
           -0.62500000000000D-01  0.62500000000000D-01 -0.62500000000000D-01
            0.62500000000000D-01  0.18750000000000D+00 -0.62500000000000D-01
            0.18750000000000D+00  0.18750000000000D+00 -0.62500000000000D-01
            0.31250000000000D+00  0.18750000000000D+00 -0.62500000000000D-01
            0.43750000000000D+00  0.18750000000000D+00 -0.62500000000000D-01
           -0.43750000000000D+00  0.18750000000000D+00 -0.62500000000000D-01
           -0.31250000000000D+00  0.18750000000000D+00 -0.62500000000000D-01
           -0.18750000000000D+00  0.18750000000000D+00 -0.62500000000000D-01
           -0.62500000000000D-01  0.18750000000000D+00 -0.62500000000000D-01
            0.62500000000000D-01  0.31250000000000D+00 -0.62500000000000D-01
            0.18750000000000D+00  0.31250000000000D+00 -0.62500000000000D-01
            0.31250000000000D+00  0.31250000000000D+00 -0.62500000000000D-01
            0.43750000000000D+00  0.31250000000000D+00 -0.62500000000000D-01
           -0.43750000000000D+00  0.31250000000000D+00 -0.62500000000000D-01
           -0.31250000000000D+00  0.31250000000000D+00 -0.62500000000000D-01
           -0.18750000000000D+00  0.31250000000000D+00 -0.62500000000000D-01
           -0.62500000000000D-01  0.31250000000000D+00 -0.62500000000000D-01
            0.62500000000000D-01  0.43750000000000D+00 -0.62500000000000D-01
            0.18750000000000D+00  0.43750000000000D+00 -0.62500000000000D-01
            0.31250000000000D+00  0.43750000000000D+00 -0.62500000000000D-01
            0.43750000000000D+00  0.43750000000000D+00 -0.62500000000000D-01
           -0.43750000000000D+00  0.43750000000000D+00 -0.62500000000000D-01
           -0.31250000000000D+00  0.43750000000000D+00 -0.62500000000000D-01
           -0.18750000000000D+00  0.43750000000000D+00 -0.62500000000000D-01
           -0.62500000000000D-01  0.43750000000000D+00 -0.62500000000000D-01
            0.62500000000000D-01 -0.43750000000000D+00 -0.62500000000000D-01
            0.18750000000000D+00 -0.43750000000000D+00 -0.62500000000000D-01
            0.31250000000000D+00 -0.43750000000000D+00 -0.62500000000000D-01
            0.43750000000000D+00 -0.43750000000000D+00 -0.62500000000000D-01
           -0.43750000000000D+00 -0.43750000000000D+00 -0.62500000000000D-01
           -0.31250000000000D+00 -0.43750000000000D+00 -0.62500000000000D-01
           -0.18750000000000D+00 -0.43750000000000D+00 -0.62500000000000D-01
           -0.62500000000000D-01 -0.43750000000000D+00 -0.62500000000000D-01
            0.62500000000000D-01 -0.31250000000000D+00 -0.62500000000000D-01
            0.18750000000000D+00 -0.31250000000000D+00 -0.62500000000000D-01
            0.31250000000000D+00 -0.31250000000000D+00 -0.62500000000000D-01
            0.43750000000000D+00 -0.31250000000000D+00 -0.62500000000000D-01
           -0.43750000000000D+00 -0.31250000000000D+00 -0.62500000000000D-01
           -0.31250000000000D+00 -0.31250000000000D+00 -0.62500000000000D-01
           -0.18750000000000D+00 -0.31250000000000D+00 -0.62500000000000D-01
           -0.62500000000000D-01 -0.31250000000000D+00 -0.62500000000000D-01
            0.62500000000000D-01 -0.18750000000000D+00 -0.62500000000000D-01
            0.18750000000000D+00 -0.18750000000000D+00 -0.62500000000000D-01
            0.31250000000000D+00 -0.18750000000000D+00 -0.62500000000000D-01
            0.43750000000000D+00 -0.18750000000000D+00 -0.62500000000000D-01
           -0.43750000000000D+00 -0.18750000000000D+00 -0.62500000000000D-01
           -0.31250000000000D+00 -0.18750000000000D+00 -0.62500000000000D-01
           -0.18750000000000D+00 -0.18750000000000D+00 -0.62500000000000D-01
           -0.62500000000000D-01 -0.18750000000000D+00 -0.62500000000000D-01
            0.62500000000000D-01 -0.62500000000000D-01 -0.62500000000000D-01
            0.18750000000000D+00 -0.62500000000000D-01 -0.62500000000000D-01
            0.31250000000000D+00 -0.62500000000000D-01 -0.62500000000000D-01
            0.43750000000000D+00 -0.62500000000000D-01 -0.62500000000000D-01
           -0.43750000000000D+00 -0.62500000000000D-01 -0.62500000000000D-01
           -0.31250000000000D+00 -0.62500000000000D-01 -0.62500000000000D-01
           -0.18750000000000D+00 -0.62500000000000D-01 -0.62500000000000D-01
           -0.62500000000000D-01 -0.62500000000000D-01 -0.62500000000000D-01
    kptnrm  0.10000000000000D+01
     ngfft        54   54   54
    nspden         1
   nspinor         1
       occ  0.20000000000000D+01  0.20000000000000D+01  0.20000000000000D+01
            0.20000000000000D+01  0.20000000000000D+01  0.20000000000000D+01
            0.20000000000000D+01  0.20000000000000D+01  0.20000000000000D+01
            0.20000000000000D+01  0.20000000000000D+01  0.20000000000000D+01
            0.20000000000000D+01  0.20000000000000D+01  0.20000000000000D+01
            0.20000000000000D+01  0.20000000000000D+01  0.20000000000000D+01
            0.20000000000000D+01  0.20000000000000D+01
     rprim  0.10000000000000D+01  0.00000000000000D+00  0.00000000000000D+00
            0.00000000000000D+00  0.10000000000000D+01  0.00000000000000D+00
            0.00000000000000D+00  0.00000000000000D+00  0.10000000000000D+01
     sciss  0.00000000000000D+00
    spinat  0.00000000000000D+00  0.00000000000000D+00  0.00000000000000D+00
            0.00000000000000D+00  0.00000000000000D+00  0.00000000000000D+00
            0.00000000000000D+00  0.00000000000000D+00  0.00000000000000D+00
            0.00000000000000D+00  0.00000000000000D+00  0.00000000000000D+00
            0.00000000000000D+00  0.00000000000000D+00  0.00000000000000D+00
    symafm         1    1    1    1    1    1    1    1    1    1    1    1
                   1    1    1    1    1    1    1    1    1    1    1    1
                   1    1    1    1    1    1    1    1    1    1    1    1
                   1    1    1    1    1    1    1    1    1    1    1    1
    symrel         1    0    0    0    1    0    0    0    1
                  -1    0    0    0   -1    0    0    0   -1
                  -1    0    0    0    1    0    0    0   -1
                   1    0    0    0   -1    0    0    0    1
                  -1    0    0    0   -1    0    0    0    1
                   1    0    0    0    1    0    0    0   -1
                   1    0    0    0   -1    0    0    0   -1
                  -1    0    0    0    1    0    0    0    1
                   0    1    0    1    0    0    0    0    1
                   0   -1    0   -1    0    0    0    0   -1
                   0   -1    0    1    0    0    0    0   -1
                   0    1    0   -1    0    0    0    0    1
                   0   -1    0   -1    0    0    0    0    1
                   0    1    0    1    0    0    0    0   -1
                   0    1    0   -1    0    0    0    0   -1
                   0   -1    0    1    0    0    0    0    1
                   0    0    1    1    0    0    0    1    0
                   0    0   -1   -1    0    0    0   -1    0
                   0    0   -1    1    0    0    0   -1    0
                   0    0    1   -1    0    0    0    1    0
                   0    0   -1   -1    0    0    0    1    0
                   0    0    1    1    0    0    0   -1    0
                   0    0    1   -1    0    0    0   -1    0
                   0    0   -1    1    0    0    0    1    0
                   1    0    0    0    0    1    0    1    0
                  -1    0    0    0    0   -1    0   -1    0
                  -1    0    0    0    0    1    0   -1    0
                   1    0    0    0    0   -1    0    1    0
                  -1    0    0    0    0   -1    0    1    0
                   1    0    0    0    0    1    0   -1    0
                   1    0    0    0    0   -1    0   -1    0
                  -1    0    0    0    0    1    0    1    0
                   0    1    0    0    0    1    1    0    0
                   0   -1    0    0    0   -1   -1    0    0
                   0   -1    0    0    0    1   -1    0    0
                   0    1    0    0    0   -1    1    0    0
                   0   -1    0    0    0   -1    1    0    0
                   0    1    0    0    0    1   -1    0    0
                   0    1    0    0    0   -1   -1    0    0
                   0   -1    0    0    0    1    1    0    0
                   0    0    1    0    1    0    1    0    0
                   0    0   -1    0   -1    0   -1    0    0
                   0    0   -1    0    1    0   -1    0    0
                   0    0    1    0   -1    0    1    0    0
                   0    0   -1    0   -1    0    1    0    0
                   0    0    1    0    1    0   -1    0    0
                   0    0    1    0   -1    0   -1    0    0
                   0    0   -1    0    1    0    1    0    0
     tnons  0.00000000000000D+00  0.00000000000000D+00  0.00000000000000D+00
            0.00000000000000D+00  0.00000000000000D+00  0.00000000000000D+00
            0.00000000000000D+00  0.00000000000000D+00  0.00000000000000D+00
            0.00000000000000D+00  0.00000000000000D+00  0.00000000000000D+00
            0.00000000000000D+00  0.00000000000000D+00  0.00000000000000D+00
            0.00000000000000D+00  0.00000000000000D+00  0.00000000000000D+00
            0.00000000000000D+00  0.00000000000000D+00  0.00000000000000D+00
            0.00000000000000D+00  0.00000000000000D+00  0.00000000000000D+00
            0.00000000000000D+00  0.00000000000000D+00  0.00000000000000D+00
            0.00000000000000D+00  0.00000000000000D+00  0.00000000000000D+00
            0.00000000000000D+00  0.00000000000000D+00  0.00000000000000D+00
            0.00000000000000D+00  0.00000000000000D+00  0.00000000000000D+00
            0.00000000000000D+00  0.00000000000000D+00  0.00000000000000D+00
            0.00000000000000D+00  0.00000000000000D+00  0.00000000000000D+00
            0.00000000000000D+00  0.00000000000000D+00  0.00000000000000D+00
            0.00000000000000D+00  0.00000000000000D+00  0.00000000000000D+00
            0.00000000000000D+00  0.00000000000000D+00  0.00000000000000D+00
            0.00000000000000D+00  0.00000000000000D+00  0.00000000000000D+00
            0.00000000000000D+00  0.00000000000000D+00  0.00000000000000D+00
            0.00000000000000D+00  0.00000000000000D+00  0.00000000000000D+00
            0.00000000000000D+00  0.00000000000000D+00  0.00000000000000D+00
            0.00000000000000D+00  0.00000000000000D+00  0.00000000000000D+00
            0.00000000000000D+00  0.00000000000000D+00  0.00000000000000D+00
            0.00000000000000D+00  0.00000000000000D+00  0.00000000000000D+00
            0.00000000000000D+00  0.00000000000000D+00  0.00000000000000D+00
            0.00000000000000D+00  0.00000000000000D+00  0.00000000000000D+00
            0.00000000000000D+00  0.00000000000000D+00  0.00000000000000D+00
            0.00000000000000D+00  0.00000000000000D+00  0.00000000000000D+00
            0.00000000000000D+00  0.00000000000000D+00  0.00000000000000D+00
            0.00000000000000D+00  0.00000000000000D+00  0.00000000000000D+00
            0.00000000000000D+00  0.00000000000000D+00  0.00000000000000D+00
            0.00000000000000D+00  0.00000000000000D+00  0.00000000000000D+00
            0.00000000000000D+00  0.00000000000000D+00  0.00000000000000D+00
            0.00000000000000D+00  0.00000000000000D+00  0.00000000000000D+00
            0.00000000000000D+00  0.00000000000000D+00  0.00000000000000D+00
            0.00000000000000D+00  0.00000000000000D+00  0.00000000000000D+00
            0.00000000000000D+00  0.00000000000000D+00  0.00000000000000D+00
            0.00000000000000D+00  0.00000000000000D+00  0.00000000000000D+00
            0.00000000000000D+00  0.00000000000000D+00  0.00000000000000D+00
            0.00000000000000D+00  0.00000000000000D+00  0.00000000000000D+00
            0.00000000000000D+00  0.00000000000000D+00  0.00000000000000D+00
            0.00000000000000D+00  0.00000000000000D+00  0.00000000000000D+00
            0.00000000000000D+00  0.00000000000000D+00  0.00000000000000D+00
            0.00000000000000D+00  0.00000000000000D+00  0.00000000000000D+00
            0.00000000000000D+00  0.00000000000000D+00  0.00000000000000D+00
            0.00000000000000D+00  0.00000000000000D+00  0.00000000000000D+00
            0.00000000000000D+00  0.00000000000000D+00  0.00000000000000D+00
            0.00000000000000D+00  0.00000000000000D+00  0.00000000000000D+00
    tolwfr  0.10000000000000D+01
   tphysel  0.00000000000000D+00
    tsmear  0.40000000000000D-01
     typat         1    2    3    3    3
       wtk  0.19531250000000D-02  0.19531250000000D-02  0.19531250000000D-02
            0.19531250000000D-02  0.19531250000000D-02  0.19531250000000D-02
            0.19531250000000D-02  0.19531250000000D-02  0.19531250000000D-02
            0.19531250000000D-02  0.19531250000000D-02  0.19531250000000D-02
            0.19531250000000D-02  0.19531250000000D-02  0.19531250000000D-02
            0.19531250000000D-02  0.19531250000000D-02  0.19531250000000D-02
            0.19531250000000D-02  0.19531250000000D-02  0.19531250000000D-02
            0.19531250000000D-02  0.19531250000000D-02  0.19531250000000D-02
            0.19531250000000D-02  0.19531250000000D-02  0.19531250000000D-02
            0.19531250000000D-02  0.19531250000000D-02  0.19531250000000D-02
            0.19531250000000D-02  0.19531250000000D-02  0.19531250000000D-02
            0.19531250000000D-02  0.19531250000000D-02  0.19531250000000D-02
            0.19531250000000D-02  0.19531250000000D-02  0.19531250000000D-02
            0.19531250000000D-02  0.19531250000000D-02  0.19531250000000D-02
            0.19531250000000D-02  0.19531250000000D-02  0.19531250000000D-02
            0.19531250000000D-02  0.19531250000000D-02  0.19531250000000D-02
            0.19531250000000D-02  0.19531250000000D-02  0.19531250000000D-02
            0.19531250000000D-02  0.19531250000000D-02  0.19531250000000D-02
            0.19531250000000D-02  0.19531250000000D-02  0.19531250000000D-02
            0.19531250000000D-02  0.19531250000000D-02  0.19531250000000D-02
            0.19531250000000D-02  0.19531250000000D-02  0.19531250000000D-02
            0.19531250000000D-02  0.19531250000000D-02  0.19531250000000D-02
            0.19531250000000D-02  0.19531250000000D-02  0.19531250000000D-02
            0.19531250000000D-02  0.19531250000000D-02  0.19531250000000D-02
            0.19531250000000D-02  0.19531250000000D-02  0.19531250000000D-02
            0.19531250000000D-02  0.19531250000000D-02  0.19531250000000D-02
            0.19531250000000D-02  0.19531250000000D-02  0.19531250000000D-02
            0.19531250000000D-02  0.19531250000000D-02  0.19531250000000D-02
            0.19531250000000D-02  0.19531250000000D-02  0.19531250000000D-02
            0.19531250000000D-02  0.19531250000000D-02  0.19531250000000D-02
            0.19531250000000D-02  0.19531250000000D-02  0.19531250000000D-02
            0.19531250000000D-02  0.19531250000000D-02  0.19531250000000D-02
            0.19531250000000D-02  0.19531250000000D-02  0.19531250000000D-02
            0.19531250000000D-02  0.19531250000000D-02  0.19531250000000D-02
            0.19531250000000D-02  0.19531250000000D-02  0.19531250000000D-02
            0.19531250000000D-02  0.19531250000000D-02  0.19531250000000D-02
            0.19531250000000D-02  0.19531250000000D-02  0.19531250000000D-02
            0.19531250000000D-02  0.19531250000000D-02  0.19531250000000D-02
            0.19531250000000D-02  0.19531250000000D-02  0.19531250000000D-02
            0.19531250000000D-02  0.19531250000000D-02  0.19531250000000D-02
            0.19531250000000D-02  0.19531250000000D-02  0.19531250000000D-02
            0.19531250000000D-02  0.19531250000000D-02  0.19531250000000D-02
            0.19531250000000D-02  0.19531250000000D-02  0.19531250000000D-02
            0.19531250000000D-02  0.19531250000000D-02  0.19531250000000D-02
            0.19531250000000D-02  0.19531250000000D-02  0.19531250000000D-02
            0.19531250000000D-02  0.19531250000000D-02  0.19531250000000D-02
            0.19531250000000D-02  0.19531250000000D-02  0.19531250000000D-02
            0.19531250000000D-02  0.19531250000000D-02  0.19531250000000D-02
            0.19531250000000D-02  0.19531250000000D-02  0.19531250000000D-02
            0.19531250000000D-02  0.19531250000000D-02  0.19531250000000D-02
            0.19531250000000D-02  0.19531250000000D-02  0.19531250000000D-02
            0.19531250000000D-02  0.19531250000000D-02  0.19531250000000D-02
            0.19531250000000D-02  0.19531250000000D-02  0.19531250000000D-02
            0.19531250000000D-02  0.19531250000000D-02  0.19531250000000D-02
            0.19531250000000D-02  0.19531250000000D-02  0.19531250000000D-02
            0.19531250000000D-02  0.19531250000000D-02  0.19531250000000D-02
            0.19531250000000D-02  0.19531250000000D-02  0.19531250000000D-02
            0.19531250000000D-02  0.19531250000000D-02  0.19531250000000D-02
            0.19531250000000D-02  0.19531250000000D-02  0.19531250000000D-02
            0.19531250000000D-02  0.19531250000000D-02  0.19531250000000D-02
            0.19531250000000D-02  0.19531250000000D-02  0.19531250000000D-02
            0.19531250000000D-02  0.19531250000000D-02  0.19531250000000D-02
            0.19531250000000D-02  0.19531250000000D-02  0.19531250000000D-02
            0.19531250000000D-02  0.19531250000000D-02  0.19531250000000D-02
            0.19531250000000D-02  0.19531250000000D-02  0.19531250000000D-02
            0.19531250000000D-02  0.19531250000000D-02  0.19531250000000D-02
            0.19531250000000D-02  0.19531250000000D-02  0.19531250000000D-02
            0.19531250000000D-02  0.19531250000000D-02  0.19531250000000D-02
            0.19531250000000D-02  0.19531250000000D-02  0.19531250000000D-02
            0.19531250000000D-02  0.19531250000000D-02  0.19531250000000D-02
            0.19531250000000D-02  0.19531250000000D-02  0.19531250000000D-02
            0.19531250000000D-02  0.19531250000000D-02  0.19531250000000D-02
            0.19531250000000D-02  0.19531250000000D-02  0.19531250000000D-02
            0.19531250000000D-02  0.19531250000000D-02  0.19531250000000D-02
            0.19531250000000D-02  0.19531250000000D-02  0.19531250000000D-02
            0.19531250000000D-02  0.19531250000000D-02  0.19531250000000D-02
            0.19531250000000D-02  0.19531250000000D-02  0.19531250000000D-02
            0.19531250000000D-02  0.19531250000000D-02  0.19531250000000D-02
            0.19531250000000D-02  0.19531250000000D-02  0.19531250000000D-02
            0.19531250000000D-02  0.19531250000000D-02  0.19531250000000D-02
            0.19531250000000D-02  0.19531250000000D-02  0.19531250000000D-02
            0.19531250000000D-02  0.19531250000000D-02  0.19531250000000D-02
            0.19531250000000D-02  0.19531250000000D-02  0.19531250000000D-02
            0.19531250000000D-02  0.19531250000000D-02  0.19531250000000D-02
            0.19531250000000D-02  0.19531250000000D-02  0.19531250000000D-02
            0.19531250000000D-02  0.19531250000000D-02  0.19531250000000D-02
            0.19531250000000D-02  0.19531250000000D-02  0.19531250000000D-02
            0.19531250000000D-02  0.19531250000000D-02  0.19531250000000D-02
            0.19531250000000D-02  0.19531250000000D-02  0.19531250000000D-02
            0.19531250000000D-02  0.19531250000000D-02  0.19531250000000D-02
            0.19531250000000D-02  0.19531250000000D-02  0.19531250000000D-02
            0.19531250000000D-02  0.19531250000000D-02  0.19531250000000D-02
            0.19531250000000D-02  0.19531250000000D-02  0.19531250000000D-02
            0.19531250000000D-02  0.19531250000000D-02  0.19531250000000D-02
            0.19531250000000D-02  0.19531250000000D-02  0.19531250000000D-02
            0.19531250000000D-02  0.19531250000000D-02  0.19531250000000D-02
            0.19531250000000D-02  0.19531250000000D-02  0.19531250000000D-02
            0.19531250000000D-02  0.19531250000000D-02  0.19531250000000D-02
            0.19531250000000D-02  0.19531250000000D-02  0.19531250000000D-02
            0.19531250000000D-02  0.19531250000000D-02  0.19531250000000D-02
            0.19531250000000D-02  0.19531250000000D-02  0.19531250000000D-02
            0.19531250000000D-02  0.19531250000000D-02  0.19531250000000D-02
            0.19531250000000D-02  0.19531250000000D-02  0.19531250000000D-02
            0.19531250000000D-02  0.19531250000000D-02  0.19531250000000D-02
            0.19531250000000D-02  0.19531250000000D-02  0.19531250000000D-02
            0.19531250000000D-02  0.19531250000000D-02  0.19531250000000D-02
            0.19531250000000D-02  0.19531250000000D-02  0.19531250000000D-02
            0.19531250000000D-02  0.19531250000000D-02  0.19531250000000D-02
            0.19531250000000D-02  0.19531250000000D-02  0.19531250000000D-02
            0.19531250000000D-02  0.19531250000000D-02  0.19531250000000D-02
            0.19531250000000D-02  0.19531250000000D-02  0.19531250000000D-02
            0.19531250000000D-02  0.19531250000000D-02  0.19531250000000D-02
            0.19531250000000D-02  0.19531250000000D-02  0.19531250000000D-02
            0.19531250000000D-02  0.19531250000000D-02  0.19531250000000D-02
            0.19531250000000D-02  0.19531250000000D-02  0.19531250000000D-02
            0.19531250000000D-02  0.19531250000000D-02  0.19531250000000D-02
            0.19531250000000D-02  0.19531250000000D-02  0.19531250000000D-02
            0.19531250000000D-02  0.19531250000000D-02  0.19531250000000D-02
            0.19531250000000D-02  0.19531250000000D-02  0.19531250000000D-02
            0.19531250000000D-02  0.19531250000000D-02  0.19531250000000D-02
            0.19531250000000D-02  0.19531250000000D-02  0.19531250000000D-02
            0.19531250000000D-02  0.19531250000000D-02  0.19531250000000D-02
            0.19531250000000D-02  0.19531250000000D-02  0.19531250000000D-02
            0.19531250000000D-02  0.19531250000000D-02  0.19531250000000D-02
            0.19531250000000D-02  0.19531250000000D-02  0.19531250000000D-02
            0.19531250000000D-02  0.19531250000000D-02  0.19531250000000D-02
            0.19531250000000D-02  0.19531250000000D-02  0.19531250000000D-02
            0.19531250000000D-02  0.19531250000000D-02  0.19531250000000D-02
            0.19531250000000D-02  0.19531250000000D-02  0.19531250000000D-02
            0.19531250000000D-02  0.19531250000000D-02  0.19531250000000D-02
            0.19531250000000D-02  0.19531250000000D-02  0.19531250000000D-02
            0.19531250000000D-02  0.19531250000000D-02  0.19531250000000D-02
            0.19531250000000D-02  0.19531250000000D-02  0.19531250000000D-02
            0.19531250000000D-02  0.19531250000000D-02  0.19531250000000D-02
            0.19531250000000D-02  0.19531250000000D-02  0.19531250000000D-02
            0.19531250000000D-02  0.19531250000000D-02  0.19531250000000D-02
            0.19531250000000D-02  0.19531250000000D-02  0.19531250000000D-02
            0.19531250000000D-02  0.19531250000000D-02  0.19531250000000D-02
            0.19531250000000D-02  0.19531250000000D-02  0.19531250000000D-02
            0.19531250000000D-02  0.19531250000000D-02  0.19531250000000D-02
            0.19531250000000D-02  0.19531250000000D-02  0.19531250000000D-02
            0.19531250000000D-02  0.19531250000000D-02  0.19531250000000D-02
            0.19531250000000D-02  0.19531250000000D-02  0.19531250000000D-02
            0.19531250000000D-02  0.19531250000000D-02  0.19531250000000D-02
            0.19531250000000D-02  0.19531250000000D-02  0.19531250000000D-02
            0.19531250000000D-02  0.19531250000000D-02  0.19531250000000D-02
            0.19531250000000D-02  0.19531250000000D-02  0.19531250000000D-02
            0.19531250000000D-02  0.19531250000000D-02  0.19531250000000D-02
            0.19531250000000D-02  0.19531250000000D-02  0.19531250000000D-02
            0.19531250000000D-02  0.19531250000000D-02  0.19531250000000D-02
            0.19531250000000D-02  0.19531250000000D-02  0.19531250000000D-02
            0.19531250000000D-02  0.19531250000000D-02  0.19531250000000D-02
            0.19531250000000D-02  0.19531250000000D-02  0.19531250000000D-02
            0.19531250000000D-02  0.19531250000000D-02  0.19531250000000D-02
            0.19531250000000D-02  0.19531250000000D-02  0.19531250000000D-02
            0.19531250000000D-02  0.19531250000000D-02  0.19531250000000D-02
            0.19531250000000D-02  0.19531250000000D-02  0.19531250000000D-02
            0.19531250000000D-02  0.19531250000000D-02  0.19531250000000D-02
            0.19531250000000D-02  0.19531250000000D-02  0.19531250000000D-02
            0.19531250000000D-02  0.19531250000000D-02  0.19531250000000D-02
            0.19531250000000D-02  0.19531250000000D-02  0.19531250000000D-02
            0.19531250000000D-02  0.19531250000000D-02  0.19531250000000D-02
            0.19531250000000D-02  0.19531250000000D-02  0.19531250000000D-02
            0.19531250000000D-02  0.19531250000000D-02  0.19531250000000D-02
            0.19531250000000D-02  0.19531250000000D-02  0.19531250000000D-02
            0.19531250000000D-02  0.19531250000000D-02  0.19531250000000D-02
            0.19531250000000D-02  0.19531250000000D-02  0.19531250000000D-02
            0.19531250000000D-02  0.19531250000000D-02  0.19531250000000D-02
            0.19531250000000D-02  0.19531250000000D-02  0.19531250000000D-02
            0.19531250000000D-02  0.19531250000000D-02  0.19531250000000D-02
            0.19531250000000D-02  0.19531250000000D-02
      xred  0.00000000000000D+00  0.00000000000000D+00  0.00000000000000D+00
            0.50000000000000D+00  0.50000000000000D+00  0.50000000000000D+00
            0.00000000000000D+00  0.50000000000000D+00  0.50000000000000D+00
            0.50000000000000D+00  0.00000000000000D+00  0.50000000000000D+00
            0.50000000000000D+00  0.50000000000000D+00  0.00000000000000D+00
     znucl  0.56000000000000D+02  0.22000000000000D+02  0.80000000000000D+01
      zion  0.10000000000000D+02  0.12000000000000D+02  0.60000000000000D+01
 
  Description of the potentials (KB energies)
  vrsio8 (for pseudopotentials)=100401
  usepaw =  0
  dimekb =  4       lmnmax=  4
  Atom type=    1   pspso=  0   nekb=   3
  iln lpsang iproj  ekb(:)
     1     0     1    -1.0250000E+00  0.0000000E+00  0.0000000E+00
     2     1     1     0.0000000E+00 -8.1202011E-01  0.0000000E+00
     3     2     1     0.0000000E+00  0.0000000E+00 -5.5122880E+00
  Atom type=    2   pspso=  0   nekb=   3
  iln lpsang iproj  ekb(:)
     1     0     1    -5.2278997E+00  0.0000000E+00  0.0000000E+00
     2     1     1     0.0000000E+00 -6.9113425E+00  0.0000000E+00
     3     2     1     0.0000000E+00  0.0000000E+00 -8.6397723E+00
  Atom type=    3   pspso=  0   nekb=   1
  iln lpsang iproj  ekb(:)
     1     1     1    -3.6419852E+00
 
 **** Database of total energy derivatives ****
 Number of data blocks=   10
  
 2nd derivatives (non-stat.)  - # elements :     324
 qpt  0.00000000E+00  0.00000000E+00  0.00000000E+00   1.0
   1   1   1   1  0.37102056442114D+01  0.00000000000000D+00
   2   1   1   1  0.33830528591476D-13  0.00000000000000D+00
   3   1   1   1 -0.20336428763530D-14  0.00000000000000D+00
   1   2   1   1 -0.20527294874572D+01  0.00000000000000D+00
   2   2   1   1  0.12697052249601D-14  0.00000000000000D+00
   3   2   1   1 -0.20934245759065D-14  0.00000000000000D+00
   1   3   1   1 -0.75244747698994D+00  0.00000000000000D+00
   2   3   1   1 -0.23187978115813D-14  0.00000000000000D+00
   3   3   1   1  0.44560281934011D-15  0.00000000000000D+00
   1   4   1   1 -0.45429880527045D+00  0.00000000000000D+00
   2   4   1   1 -0.16681491629266D-14  0.00000000000000D+00
   3   4   1   1 -0.10693015297117D-14  0.00000000000000D+00
   1   5   1   1 -0.45429880527001D+00  0.00000000000000D+00
   2   5   1   1  0.10081524110442D-13  0.00000000000000D+00
   3   5   1   1  0.16476590864864D-14  0.00000000000000D+00
   1   7   1   1 -0.45603630147647D+02  0.00000000000000D+00
   2   7   1   1  0.00000000000000D+00  0.00000000000000D+00
   3   7   1   1  0.00000000000000D+00  0.00000000000000D+00
   1   1   2   1  0.33830528591476D-13  0.00000000000000D+00
   2   1   2   1  0.37102056442112D+01  0.00000000000000D+00
   3   1   2   1  0.35368334023730D-15  0.00000000000000D+00
   1   2   2   1 -0.82998943062671D-14  0.00000000000000D+00
   2   2   2   1 -0.20527294874572D+01  0.00000000000000D+00
   3   2   2   1 -0.66177239043229D-16  0.00000000000000D+00
   1   3   2   1 -0.20467257908701D-13  0.00000000000000D+00
   2   3   2   1 -0.45431163300812D+00  0.00000000000000D+00
   3   3   2   1 -0.99185260171041D-16  0.00000000000000D+00
   1   4   2   1  0.94276193874433D-16  0.00000000000000D+00
   2   4   2   1 -0.75244747698994D+00  0.00000000000000D+00
   3   4   2   1 -0.26494334041638D-15  0.00000000000000D+00
   1   5   2   1 -0.43662375593780D-16  0.00000000000000D+00
   2   5   2   1 -0.45429880527001D+00  0.00000000000000D+00
   3   5   2   1  0.76622499393354D-16  0.00000000000000D+00
   1   7   2   1  0.15719332049819D-11  0.00000000000000D+00
   2   7   2   1 -0.45603630147647D+02  0.00000000000000D+00
   3   7   2   1  0.00000000000000D+00  0.00000000000000D+00
   1   1   3   1 -0.20336428763530D-14  0.00000000000000D+00
   2   1   3   1  0.35368334023730D-15  0.00000000000000D+00
   3   1   3   1  0.37102056442116D+01  0.00000000000000D+00
   1   2   3   1 -0.16862324782821D-13  0.00000000000000D+00
   2   2   3   1 -0.66177239043229D-16  0.00000000000000D+00
   3   2   3   1 -0.20527294874571D+01  0.00000000000000D+00
   1   3   3   1  0.89358071204314D-15  0.00000000000000D+00
   2   3   3   1  0.23558445681714D-13  0.00000000000000D+00
   3   3   3   1 -0.45429880527048D+00  0.00000000000000D+00
   1   4   3   1 -0.43935160243601D-16  0.00000000000000D+00
   2   4   3   1 -0.26494334041638D-15  0.00000000000000D+00
   3   4   3   1 -0.45429880527050D+00  0.00000000000000D+00
   1   5   3   1  0.93194910098531D-16  0.00000000000000D+00
   2   5   3   1  0.76622499393354D-16  0.00000000000000D+00
   3   5   3   1 -0.75244747698994D+00  0.00000000000000D+00
   1   7   3   1  0.42535268022422D-13  0.00000000000000D+00
   2   7   3   1  0.00000000000000D+00  0.00000000000000D+00
   3   7   3   1 -0.45603630147647D+02  0.00000000000000D+00
   1   1   1   2 -0.20527479579089D+01  0.00000000000000D+00
   2   1   1   2 -0.82998943062671D-14  0.00000000000000D+00
   3   1   1   2 -0.16862324782821D-13  0.00000000000000D+00
   1   2   1   2  0.33576338335479D-01  0.00000000000000D+00
   2   2   1   2 -0.63178271481134D-13  0.00000000000000D+00
   3   2   1   2  0.34625924003282D-13  0.00000000000000D+00
   1   3   1   2  0.27686511085822D+01  0.00000000000000D+00
   2   3   1   2 -0.99545496156210D-14  0.00000000000000D+00
   3   3   1   2  0.59638166878254D-15  0.00000000000000D+00
   1   4   1   2 -0.28200908464898D+00  0.00000000000000D+00
   2   4   1   2 -0.99059843697956D-14  0.00000000000000D+00
   3   4   1   2 -0.30523510356818D-14  0.00000000000000D+00
   1   5   1   2 -0.28200908464906D+00  0.00000000000000D+00
   2   5   1   2 -0.21899417226860D-13  0.00000000000000D+00
   3   5   1   2 -0.18570271118309D-14  0.00000000000000D+00
   1   7   1   2 -0.28315747748510D+02  0.00000000000000D+00
   2   7   1   2  0.00000000000000D+00  0.00000000000000D+00
   3   7   1   2  0.00000000000000D+00  0.00000000000000D+00
   1   1   2   2  0.12697052249601D-14  0.00000000000000D+00
   2   1   2   2 -0.20527479579089D+01  0.00000000000000D+00
   3   1   2   2 -0.66177239043229D-16  0.00000000000000D+00
   1   2   2   2 -0.63178271481134D-13  0.00000000000000D+00
   2   2   2   2  0.33576338332750D-01  0.00000000000000D+00
   3   2   2   2  0.73778390961468D-15  0.00000000000000D+00
   1   3   2   2 -0.76846975272873D-14  0.00000000000000D+00
   2   3   2   2 -0.28203245272707D+00  0.00000000000000D+00
   3   3   2   2  0.31957055212946D-15  0.00000000000000D+00
   1   4   2   2 -0.27455307882286D-15  0.00000000000000D+00
   2   4   2   2  0.27686511085822D+01  0.00000000000000D+00
   3   4   2   2 -0.73190569267022D-15  0.00000000000000D+00
   1   5   2   2 -0.21053268906805D-15  0.00000000000000D+00
   2   5   2   2 -0.28200908464906D+00  0.00000000000000D+00
   3   5   2   2 -0.25927153003069D-15  0.00000000000000D+00
   1   7   2   2  0.34431427687769D-11  0.00000000000000D+00
   2   7   2   2 -0.28315747748510D+02  0.00000000000000D+00
   3   7   2   2  0.00000000000000D+00  0.00000000000000D+00
   1   1   3   2 -0.20934245759065D-14  0.00000000000000D+00
   2   1   3   2 -0.66177239043229D-16  0.00000000000000D+00
   3   1   3   2 -0.20527479579089D+01  0.00000000000000D+00
   1   2   3   2  0.34625924003282D-13  0.00000000000000D+00
   2   2   3   2  0.73778390961468D-15  0.00000000000000D+00
   3   2   3   2  0.33576338330931D-01  0.00000000000000D+00
   1   3   3   2  0.24752641901135D-14  0.00000000000000D+00
   2   3   3   2 -0.43189520352198D-14  0.00000000000000D+00
   3   3   3   2 -0.28200908464893D+00  0.00000000000000D+00
   1   4   3   2 -0.20970937304332D-15  0.00000000000000D+00
   2   4   3   2 -0.73190569267022D-15  0.00000000000000D+00
   3   4   3   2 -0.28200908464893D+00  0.00000000000000D+00
   1   5   3   2 -0.27455308221802D-15  0.00000000000000D+00
   2   5   3   2 -0.25927153003069D-15  0.00000000000000D+00
   3   5   3   2  0.27686511085822D+01  0.00000000000000D+00
   1   7   3   2 -0.21470983936759D-11  0.00000000000000D+00
   2   7   3   2  0.00000000000000D+00  0.00000000000000D+00
   3   7   3   2 -0.28315747748510D+02  0.00000000000000D+00
   1   1   1   3 -0.75244512937201D+00  0.00000000000000D+00
   2   1   1   3 -0.20467257908701D-13  0.00000000000000D+00
   3   1   1   3  0.89358071204314D-15  0.00000000000000D+00
   1   2   1   3  0.27686302864095D+01  0.00000000000000D+00
   2   2   1   3 -0.76846975272873D-14  0.00000000000000D+00
   3   2   1   3  0.24752641901135D-14  0.00000000000000D+00
   1   3   1   3  0.34143462510406D+01  0.00000000000000D+00
   2   3   1   3  0.20922504937392D-13  0.00000000000000D+00
   3   3   1   3  0.34335120253063D-15  0.00000000000000D+00
   1   4   1   3 -0.26586006537747D+01  0.00000000000000D+00
   2   4   1   3  0.79025315618998D-15  0.00000000000000D+00
   3   4   1   3  0.19872816932356D-14  0.00000000000000D+00
   1   5   1   3 -0.26586006537747D+01  0.00000000000000D+00
   2   5   1   3 -0.95814244853236D-15  0.00000000000000D+00
   3   5   1   3  0.25910517604156D-14  0.00000000000000D+00
   1   7   1   3 -0.74969888267479D+02  0.00000000000000D+00
   2   7   1   3  0.00000000000000D+00  0.00000000000000D+00
   3   7   1   3  0.00000000000000D+00  0.00000000000000D+00
   1   1   2   3 -0.24852602685560D-14  0.00000000000000D+00
   2   1   2   3 -0.45431163300812D+00  0.00000000000000D+00
   3   1   2   3  0.23558445681714D-13  0.00000000000000D+00
   1   2   2   3 -0.73361438346065D-14  0.00000000000000D+00
   2   2   2   3 -0.28203245272707D+00  0.00000000000000D+00
   3   2   2   3 -0.43189520352198D-14  0.00000000000000D+00
   1   3   2   3  0.43862827063172D-13  0.00000000000000D+00
   2   3   2   3  0.31621053480412D+01  0.00000000000000D+00
   3   3   2   3  0.30433267510560D-13  0.00000000000000D+00
   1   4   2   3  0.11099851618618D-13  0.00000000000000D+00
   2   4   2   3 -0.26585981066154D+01  0.00000000000000D+00
   3   4   2   3 -0.62529019924396D-14  0.00000000000000D+00
   1   5   2   3  0.17307717921002D-14  0.00000000000000D+00
   2   5   2   3  0.34903565669257D+00  0.00000000000000D+00
   3   5   2   3 -0.35395607004134D-14  0.00000000000000D+00
   1   7   2   3  0.00000000000000D+00  0.00000000000000D+00
   2   7   2   3 -0.51202987811899D+02  0.00000000000000D+00
   3   7   2   3  0.00000000000000D+00  0.00000000000000D+00
   1   1   3   3  0.44560281934011D-15  0.00000000000000D+00
   2   1   3   3 -0.99185260171041D-16  0.00000000000000D+00
   3   1   3   3 -0.45429880527048D+00  0.00000000000000D+00
   1   2   3   3  0.59638166878254D-15  0.00000000000000D+00
   2   2   3   3  0.31957055212946D-15  0.00000000000000D+00
   3   2   3   3 -0.28200908464893D+00  0.00000000000000D+00
   1   3   3   3  0.34335120253063D-15  0.00000000000000D+00
   2   3   3   3  0.30433267510560D-13  0.00000000000000D+00
   3   3   3   3  0.31621053480399D+01  0.00000000000000D+00
   1   4   3   3  0.55916946059119D-16  0.00000000000000D+00
   2   4   3   3  0.45973499636012D-16  0.00000000000000D+00
   3   4   3   3  0.34903565669257D+00  0.00000000000000D+00
   1   5   3   3 -0.26361096146160D-16  0.00000000000000D+00
   2   5   3   3 -0.15896600424983D-15  0.00000000000000D+00
   3   5   3   3 -0.26586006537747D+01  0.00000000000000D+00
   1   7   3   3  0.84795905872004D-12  0.00000000000000D+00
   2   7   3   3  0.00000000000000D+00  0.00000000000000D+00
   3   7   3   3 -0.51202975888586D+02  0.00000000000000D+00
   1   1   1   4 -0.45429880527045D+00  0.00000000000000D+00
   2   1   1   4  0.94276193874433D-16  0.00000000000000D+00
   3   1   1   4 -0.43935160243601D-16  0.00000000000000D+00
   1   2   1   4 -0.28200908464898D+00  0.00000000000000D+00
   2   2   1   4 -0.27455307882286D-15  0.00000000000000D+00
   3   2   1   4 -0.20970937304332D-15  0.00000000000000D+00
   1   3   1   4 -0.26586006537747D+01  0.00000000000000D+00
   2   3   1   4  0.11099851618618D-13  0.00000000000000D+00
   3   3   1   4  0.55916946059119D-16  0.00000000000000D+00
   1   4   1   4  0.31621053480412D+01  0.00000000000000D+00
   2   4   1   4  0.10109887080898D-15  0.00000000000000D+00
   3   4   1   4  0.93327929279349D-16  0.00000000000000D+00
   1   5   1   4  0.34903565669256D+00  0.00000000000000D+00
   2   5   1   4  0.10537543949572D-15  0.00000000000000D+00
   3   5   1   4  0.10439965794845D-15  0.00000000000000D+00
   1   7   1   4 -0.51202975888586D+02  0.00000000000000D+00
   2   7   1   4  0.00000000000000D+00  0.00000000000000D+00
   3   7   1   4  0.00000000000000D+00  0.00000000000000D+00
   1   1   2   4 -0.16681491629266D-14  0.00000000000000D+00
   2   1   2   4 -0.75244512937201D+00  0.00000000000000D+00
   3   1   2   4 -0.26494334041638D-15  0.00000000000000D+00
   1   2   2   4 -0.99059843697956D-14  0.00000000000000D+00
   2   2   2   4  0.27686302864095D+01  0.00000000000000D+00
   3   2   2   4 -0.73190569267022D-15  0.00000000000000D+00
   1   3   2   4  0.79025315618998D-15  0.00000000000000D+00
   2   3   2   4 -0.26585981066154D+01  0.00000000000000D+00
   3   3   2   4  0.45973499636012D-16  0.00000000000000D+00
   1   4   2   4  0.10109887080898D-15  0.00000000000000D+00
   2   4   2   4  0.34143462510433D+01  0.00000000000000D+00
   3   4   2   4  0.10103866895532D-14  0.00000000000000D+00
   1   5   2   4  0.10537543949572D-15  0.00000000000000D+00
   2   5   2   4 -0.26586006537747D+01  0.00000000000000D+00
   3   5   2   4 -0.59511156102625D-16  0.00000000000000D+00
   1   7   2   4 -0.14820703190871D-11  0.00000000000000D+00
   2   7   2   4 -0.74969888267479D+02  0.00000000000000D+00
   3   7   2   4  0.00000000000000D+00  0.00000000000000D+00
   1   1   3   4 -0.10693015297117D-14  0.00000000000000D+00
   2   1   3   4 -0.26494334041638D-15  0.00000000000000D+00
   3   1   3   4 -0.45429880527050D+00  0.00000000000000D+00
   1   2   3   4 -0.30523510356818D-14  0.00000000000000D+00
   2   2   3   4 -0.73190569267022D-15  0.00000000000000D+00
   3   2   3   4 -0.28200908464893D+00  0.00000000000000D+00
   1   3   3   4  0.19872816932356D-14  0.00000000000000D+00
   2   3   3   4 -0.62529019924396D-14  0.00000000000000D+00
   3   3   3   4  0.34903565669257D+00  0.00000000000000D+00
   1   4   3   4  0.93327929279349D-16  0.00000000000000D+00
   2   4   3   4  0.10103866895532D-14  0.00000000000000D+00
   3   4   3   4  0.31621053480412D+01  0.00000000000000D+00
   1   5   3   4  0.10439965794845D-15  0.00000000000000D+00
   2   5   3   4 -0.59511156102625D-16  0.00000000000000D+00
   3   5   3   4 -0.26586006537747D+01  0.00000000000000D+00
   1   7   3   4 -0.21673886682534D-11  0.00000000000000D+00
   2   7   3   4  0.00000000000000D+00  0.00000000000000D+00
   3   7   3   4 -0.51202975888586D+02  0.00000000000000D+00
   1   1   1   5 -0.45429880527001D+00  0.00000000000000D+00
   2   1   1   5 -0.43662375593780D-16  0.00000000000000D+00
   3   1   1   5  0.93194910098531D-16  0.00000000000000D+00
   1   2   1   5 -0.28200908464906D+00  0.00000000000000D+00
   2   2   1   5 -0.21053268906805D-15  0.00000000000000D+00
   3   2   1   5 -0.27455308221802D-15  0.00000000000000D+00
   1   3   1   5 -0.26586006537747D+01  0.00000000000000D+00
   2   3   1   5  0.17307717921002D-14  0.00000000000000D+00
   3   3   1   5 -0.26361096146160D-16  0.00000000000000D+00
   1   4   1   5  0.34903565669256D+00  0.00000000000000D+00
   2   4   1   5  0.10537543949572D-15  0.00000000000000D+00
   3   4   1   5  0.10439965794845D-15  0.00000000000000D+00
   1   5   1   5  0.31621053480421D+01  0.00000000000000D+00
   2   5   1   5  0.92253908841453D-16  0.00000000000000D+00
   3   5   1   5  0.10331961031719D-15  0.00000000000000D+00
   1   7   1   5 -0.51202977246757D+02  0.00000000000000D+00
   2   7   1   5  0.00000000000000D+00  0.00000000000000D+00
   3   7   1   5  0.00000000000000D+00  0.00000000000000D+00
   1   1   2   5  0.10081524110442D-13  0.00000000000000D+00
   2   1   2   5 -0.45429880527001D+00  0.00000000000000D+00
   3   1   2   5  0.76622499393354D-16  0.00000000000000D+00
   1   2   2   5 -0.21899417226860D-13  0.00000000000000D+00
   2   2   2   5 -0.28200908464906D+00  0.00000000000000D+00
   3   2   2   5 -0.25927153003069D-15  0.00000000000000D+00
   1   3   2   5 -0.95814244853236D-15  0.00000000000000D+00
   2   3   2   5  0.34903565669257D+00  0.00000000000000D+00
   3   3   2   5 -0.15896600424983D-15  0.00000000000000D+00
   1   4   2   5  0.10537543949572D-15  0.00000000000000D+00
   2   4   2   5 -0.26586006537747D+01  0.00000000000000D+00
   3   4   2   5 -0.59511156102625D-16  0.00000000000000D+00
   1   5   2   5  0.92253908841453D-16  0.00000000000000D+00
   2   5   2   5  0.31621053480426D+01  0.00000000000000D+00
   3   5   2   5  0.40112619098979D-15  0.00000000000000D+00
   1   7   2   5  0.32756525313929D-11  0.00000000000000D+00
   2   7   2   5 -0.51202977246757D+02  0.00000000000000D+00
   3   7   2   5  0.00000000000000D+00  0.00000000000000D+00
   1   1   3   5  0.16476590864864D-14  0.00000000000000D+00
   2   1   3   5  0.76622499393354D-16  0.00000000000000D+00
   3   1   3   5 -0.75244512937201D+00  0.00000000000000D+00
   1   2   3   5 -0.18570271118309D-14  0.00000000000000D+00
   2   2   3   5 -0.25927153003069D-15  0.00000000000000D+00
   3   2   3   5  0.27686302864095D+01  0.00000000000000D+00
   1   3   3   5  0.25910517604156D-14  0.00000000000000D+00
   2   3   3   5 -0.35395607004134D-14  0.00000000000000D+00
   3   3   3   5 -0.26586006537747D+01  0.00000000000000D+00
   1   4   3   5  0.10439965794845D-15  0.00000000000000D+00
   2   4   3   5 -0.59511156102625D-16  0.00000000000000D+00
   3   4   3   5 -0.26586006537747D+01  0.00000000000000D+00
   1   5   3   5  0.10331961031719D-15  0.00000000000000D+00
   2   5   3   5  0.40112619098979D-15  0.00000000000000D+00
   3   5   3   5  0.34143462510410D+01  0.00000000000000D+00
   1   7   3   5  0.16801016184437D-11  0.00000000000000D+00
   2   7   3   5  0.00000000000000D+00  0.00000000000000D+00
   3   7   3   5 -0.74969888267479D+02  0.00000000000000D+00
   1   1   1   7 -0.45603612814311D+02  0.00000000000000D+00
   2   1   1   7  0.15719332049819D-11  0.00000000000000D+00
   3   1   1   7  0.42535268022422D-13  0.00000000000000D+00
   1   2   1   7 -0.28315813827340D+02  0.00000000000000D+00
[...]
   1   4   1   4  0.48697404545387D+01  0.00000000000000D+00
   2   4   1   4  0.42480263761696D-14  0.70610720372591D-14
   3   4   1   4  0.14346075265029D-14  0.98401658047806D-14
   1   5   1   4  0.11875913736017D+01 -0.28577885356133D-11
   2   5   1   4 -0.18019738159666D-14 -0.18499105104875D-14
   3   5   1   4  0.24675470370780D-15  0.38798684797353D-16
   1   1   2   4  0.37312380437105D-10  0.92432816648873D-08
   2   1   2   4 -0.10247307423252D-13  0.81818536326587D-10
   3   1   2   4 -0.26521999124901D-16  0.11944552246933D-16
   1   2   2   4 -0.57143855356492D-07  0.74239269872928D-12
   2   2   2   4  0.27037382500096D+01 -0.88630458238014D-11
   3   2   2   4 -0.21153272530815D-14  0.28647080829658D-14
   1   3   2   4  0.44312792569815D-10  0.69213879979135D-08
   2   3   2   4  0.12298804812745D-13  0.61598573077819D-10
   3   3   2   4  0.97715369623812D-15 -0.46324283469881D-15
   1   4   2   4 -0.70218451151343D-08  0.72581426805544D-13
   2   4   2   4  0.35603629623679D+01  0.00000000000000D+00
   3   4   2   4  0.10319553025734D-13 -0.88057254623862D-15
   1   5   2   4 -0.62791255987300D-08  0.73148858560714D-13
   2   5   2   4 -0.26788938994644D+01 -0.18536231998462D-12
   3   5   2   4  0.71711483359423D-15  0.27343534811414D-15
   1   1   3   4  0.38752030447557D-12  0.33191069423623D-10
   2   1   3   4 -0.40457229133612D-17 -0.11257415500699D-15
   3   1   3   4  0.31149165240454D-13 -0.14891489065495D-13
   1   2   3   4 -0.59358402925941D-10  0.29829063569534D-12
   2   2   3   4 -0.94180809138251D-14  0.29913485065046D-14
   3   2   3   4 -0.25799829143534D+00 -0.67207405471677D-13
   1   3   3   4  0.15300072373811D-12 -0.43152748530476D-10
   2   3   3   4  0.87892346824917D-15 -0.54243163653690D-15
   3   3   3   4 -0.10921110845868D-14  0.21590809912438D-12
   1   4   3   4 -0.15312857410806D-10  0.71913694346157D-13
   2   4   3   4  0.77355322432913D-14 -0.84862698698602D-15
   3   4   3   4  0.35584488776035D+01  0.00000000000000D+00
   1   5   3   4 -0.13955872328400D-10  0.74175444773434D-13
   2   5   3   4  0.30140575866654D-16  0.17771241313545D-15
   3   5   3   4 -0.26788606545074D+01  0.82381220577790D-12
   1   1   1   5 -0.60734138900029D-15  0.14564998631595D-07
   2   1   1   5  0.28729948045614D-14  0.38821006422094D-13
   3   1   1   5 -0.16961648477491D-17  0.30391497698456D-15
   1   2   1   5 -0.40107446177447D+01  0.10120905281164D-12
   2   2   1   5  0.87394891807323D-12 -0.38363123256442D-14
   3   2   1   5 -0.18496780823841D-15  0.00000000000000D+00
   1   3   1   5  0.12251754298850D-13  0.11704316695665D-09
   2   3   1   5  0.90482923938807D-14 -0.62344962290519D-12
   3   3   1   5  0.35047399657619D-14  0.28502199155710D-16
   1   4   1   5  0.11875913736017D+01  0.28577885356133D-11
   2   4   1   5 -0.62791255987300D-08 -0.73148858560714D-13
   3   4   1   5 -0.13955872328400D-10 -0.74175444773434D-13
   1   5   1   5  0.48697404545383D+01  0.00000000000000D+00
   2   5   1   5 -0.68474499769566D-16  0.00000000000000D+00
   3   5   1   5  0.63283232294545D-16  0.00000000000000D+00
   1   1   2   5  0.79846387554385D-14  0.69166788359830D-14
   2   1   2   5  0.19123834856797D-13  0.46045841675677D-13
   3   1   2   5 -0.13307758023830D-18 -0.77082601317535D-16
   1   2   2   5  0.61897608881191D-14  0.41851903002204D-15
   2   2   2   5 -0.25797228127949D+00 -0.24850424285326D-12
   3   2   2   5 -0.56711537020902D-15  0.00000000000000D+00
   1   3   2   5 -0.75071488854490D-14 -0.19042027856554D-14
   2   3   2   5 -0.21179018471855D-14  0.10280434675469D-12
   3   3   2   5  0.81033205328014D-19 -0.45560943212872D-16
   1   4   2   5 -0.18019738159666D-14  0.18499105104875D-14
   2   4   2   5 -0.26788938994644D+01  0.18536231998462D-12
   3   4   2   5  0.30140575866654D-16 -0.17771241313545D-15
   1   5   2   5 -0.68474499769566D-16  0.00000000000000D+00
   2   5   2   5  0.35584488776035D+01  0.00000000000000D+00
   3   5   2   5  0.55285474115599D-15  0.00000000000000D+00
   1   1   3   5 -0.62644942647686D-14 -0.32381967592118D-14
   2   1   3   5 -0.10839007481415D-16 -0.10838777317555D-15
   3   1   3   5  0.22588637863500D-14 -0.88826473947818D-15
   1   2   3   5 -0.24867959420102D-14  0.99336266163645D-15
   2   2   3   5  0.13448107048727D-15 -0.79424394398795D-17
   3   2   3   5  0.27037382500095D+01 -0.88630458238014D-11
   1   3   3   5  0.66735179603576D-14  0.61520935073541D-14
   2   3   3   5  0.33780169457418D-16 -0.15584340893704D-16
   3   3   3   5 -0.20701259480413D-14  0.10909977346961D-14
   1   4   3   5  0.24675470370780D-15 -0.38798684797353D-16
   2   4   3   5  0.71711483359423D-15 -0.27343534811414D-15
   3   4   3   5 -0.26788606545074D+01 -0.82381220577790D-12
   1   5   3   5  0.63283232294545D-16  0.00000000000000D+00
   2   5   3   5  0.55285474115599D-15  0.00000000000000D+00
   3   5   3   5  0.35603629623665D+01  0.00000000000000D+00
  
 2nd derivatives (non-stat.)  - # elements :     225
 qpt  5.00000000E-01  2.50000000E-01  0.00000000E+00   1.0
   1   1   1   1  0.66870273700642D+01  0.81604096784149D-18
   2   1   1   1  0.22187788264886D-09  0.45814832479974D-14
   3   1   1   1 -0.40940626463006D-14 -0.53182453309361D-15
   1   2   1   1 -0.22777825093009D-09  0.22776164051925D-09
   2   2   1   1 -0.33886808269431D+01  0.33886808269454D+01
   3   2   1   1 -0.83671504107401D-14  0.15361080379688D-13
   1   3   1   1 -0.15046998213911D+01 -0.15046998213942D+01
   2   3   1   1 -0.13245411994210D-09 -0.13246242443435D-09
   3   3   1   1  0.20154348050427D-15 -0.14039638879830D-14
   1   4   1   1  0.94570630601621D-14 -0.10465840612946D-10
   2   4   1   1  0.54665258402516D-12 -0.11539136765396D+01
   3   4   1   1  0.84888138724353D-14 -0.38571664239416D-13
   1   5   1   1  0.33001633095071D-10 -0.33022246990962D-10
   2   5   1   1  0.28497999867999D+00 -0.28497999867710D+00
   3   5   1   1  0.61091829365332D-15  0.54589632900641D-16
   1   1   2   1 -0.62173847822990D-13 -0.12872129527757D-13
   2   1   2   1  0.47981830028582D+01  0.14882697911629D-16
   3   1   2   1  0.46859440352711D-14 -0.97891844634027D-15
   1   2   2   1 -0.29449890626408D+01  0.29449890626193D+01
   2   2   2   1 -0.27518288349992D-13  0.50172133376671D-13
   3   2   2   1  0.17615929255309D-14  0.31680455329377D-14
   1   3   2   1 -0.17386098379731D-12 -0.16605005829313D-12
   2   3   2   1 -0.26786288229854D+00 -0.26786288229865D+00
   3   3   2   1 -0.94571838901306D-14 -0.11340865260476D-13
   1   4   2   1  0.48851069998547D-12 -0.36051610373255D+00
   2   4   2   1 -0.12060488001526D-13 -0.16800639120010D-12
   3   4   2   1  0.60566443817177D-15 -0.26748526628658D-15
   1   5   2   1  0.26790614996607D+00 -0.26790614996747D+00
   2   5   2   1  0.21382010843523D-13 -0.11086927931983D-13
   3   5   2   1  0.96342297557453D-16  0.14115601791813D-15
   1   1   3   1  0.10675212305284D-10  0.67092580785692D-14
   2   1   3   1 -0.12810999887365D-12 -0.46950607781551D-14
   3   1   3   1  0.35089480070731D+01  0.99135757677325D-18
   1   2   3   1  0.19201412895033D-12 -0.25017612785967D-12
   2   2   3   1 -0.66533503310048D-11  0.66545265523517D-11
   3   2   3   1  0.41027521205881D-13 -0.20957415778081D-13
   1   3   3   1  0.61809030109697D-11  0.61822592894055D-11
   2   3   3   1  0.34269346616390D-13  0.91201162463167D-13
   3   3   3   1 -0.19622196691088D+00 -0.19622196691022D+00
   1   4   3   1 -0.29503885908175D-13 -0.50847452706611D-13
   2   4   3   1 -0.50401904279672D-14  0.51464194562630D-11
   3   4   3   1  0.51429480375837D-14 -0.40964375442547D-14
   1   5   3   1 -0.57728053275695D-13  0.27162959395955D-13
   2   5   3   1 -0.22204354197072D-11  0.22218913313803D-11
   3   5   3   1 -0.11431757161898D-13 -0.20183891954027D-14
   1   1   1   2  0.95376467952179D-09  0.95396957460149D-09
   2   1   1   2 -0.29449906192155D+01 -0.29449906192156D+01
   3   1   1   2  0.19179805515967D-13  0.20744406060432D-13
   1   2   1   2  0.16794237242373D+02  0.27958146187923D-14
   2   2   1   2 -0.19256957631747D-08  0.28481323239445D-13
   3   2   1   2  0.64891211580128D-14  0.71776788420103D-14
   1   3   1   2  0.10694237367247D-12 -0.78485900275835D-09
   2   3   1   2  0.45208336643467D-13  0.49239918984354D+00
   3   3   1   2  0.40837895971414D-15 -0.53284198983338D-13
   1   4   1   2 -0.19017684053717D+01  0.19017684053715D+01
   2   4   1   2  0.11012363025997D-08 -0.11011480326498D-08
   3   4   1   2  0.55329706304015D-14  0.25045379863238D-14
   1   5   1   2 -0.34956517833668D+01 -0.22542761741840D-12
   2   5   1   2 -0.66741959913480D-09  0.17176800695262D-13
   3   5   1   2  0.67114834450631D-15  0.17239202796099D-14
   1   1   2   2 -0.33886801112962D+01 -0.33886801112963D+01
   2   1   2   2  0.12085594239973D-13  0.10066707962093D-14
   3   1   2   2 -0.13032975589306D-15  0.11442968559841D-16
   1   2   2   2 -0.29627692610401D-13  0.39574666466054D-13
   2   2   2   2  0.94186115178582D+01  0.31439333417510D-14
   3   2   2   2  0.65770004804844D-14  0.67875207963577D-14
   1   3   2   2 -0.16999497390546D-12  0.33945040359141D+01
   2   3   2   2 -0.13512740284548D-12 -0.35395998957093D-13
   3   3   2   2 -0.15698173211549D-14  0.34737324492976D-14
   1   4   2   2 -0.88361959616864D-14  0.31307135411897D-13
   2   4   2   2 -0.39101938829802D+00  0.39101938829754D+00
   3   4   2   2  0.33551014156419D-13 -0.79885345253909D-14
   1   5   2   2 -0.45126297286161D-13  0.16199393079529D-13
   2   5   2   2 -0.19000667624183D+01 -0.24707447082799D-12
   3   5   2   2  0.38579640754691D-14 -0.15906371102905D-14
   1   1   3   2 -0.29685060317972D-11 -0.29866872875818D-11
   2   1   3   2 -0.15252384672554D-12 -0.17144575093620D-12
   3   1   3   2  0.12811837596281D-12  0.89598622060329D-13
   1   2   3   2  0.64138637064116D-12  0.33103488926016D-14
   2   2   3   2  0.19206132710061D-11 -0.10516703169190D-13
   3   2   3   2  0.69568815722050D-01  0.28507108642025D-14
   1   3   3   2  0.17110597923539D-12 -0.14131070535705D-11
   2   3   3   2  0.69003394917071D-14 -0.16965161202600D-14
   3   3   3   2 -0.19410755106317D-12  0.10242279735238D-12
   1   4   3   2  0.74444978975991D-13 -0.67997717916107D-13
   2   4   3   2  0.20062156808335D-11 -0.19560643611124D-11
   3   4   3   2 -0.14401160935122D+00  0.14401160935546D+00
   1   5   3   2  0.40656220704200D-13  0.10899700955329D-13
   2   5   3   2  0.14734242266931D-11 -0.24536430756963D-13
   3   5   3   2  0.26706261605754D+01 -0.33207102234976D-12
   1   1   1   3 -0.15047038242646D+01  0.15047038242584D+01
   2   1   1   3 -0.24010356560351D-11  0.28595945695704D-11
   3   1   1   3 -0.56216202928199D-15  0.56888994901649D-15
   1   2   1   3 -0.91275121530643D-15  0.17711344998174D-11
   2   2   1   3 -0.16551883671558D-11 -0.33944918477791D+01
   3   2   1   3  0.50362390460068D-14  0.47781965580915D-13
   1   3   1   3  0.12789475022181D+02 -0.25076556087738D-16
   2   3   1   3  0.26227322134903D-11 -0.36221046922247D-14
   3   3   1   3  0.18075602460667D-14 -0.66509735301857D-14
   1   4   1   3  0.32966120397532D-11  0.32925223775996D-11
   2   4   1   3  0.35058465924035D+01  0.35058465923980D+01
   3   4   1   3  0.45649898997181D-14  0.37280041712280D-14
   1   5   1   3 -0.20666179058481D-13  0.57601143165766D-11
   2   5   1   3  0.15916037088150D-11  0.39642152257833D+00
   3   5   1   3  0.10721242703535D-13 -0.24912671204167D-13
   1   1   2   3  0.16930397408998D-09 -0.16929135359538D-09
   2   1   2   3 -0.26786504035312D+00  0.26786503967879D+00
   3   1   2   3 -0.84392863911926D-14 -0.87687246138333D-14
   1   2   2   3  0.17286116609542D-08 -0.49239160111309D+00
   2   2   2   3 -0.99963305109180D-13  0.58150212852351D-09
   3   2   2   3  0.21374824318198D-14  0.13005797599640D-14
   1   3   2   3 -0.11865236844530D-09 -0.45899384548653D-14
   2   3   2   3  0.42084055289674D+01 -0.18199236415731D-15
   3   3   2   3  0.96976007755971D-14 -0.40813762685514D-15
   1   4   2   3  0.15126440649191D+01  0.15126440644650D+01
   2   4   2   3 -0.18647371908790D-09 -0.18646302772006D-09
   3   4   2   3  0.34457214887028D-15 -0.13136970125332D-15
   1   5   2   3  0.41375019342874D-09  0.27853671320346D+00
   2   5   2   3 -0.99633090555815D-14  0.15907987756093D-09
   3   5   2   3 -0.34363444461294D-16  0.17693557186100D-15
   1   1   3   3 -0.74456340920571D-13  0.91953238291735D-13
   2   1   3   3 -0.10492093750808D-12 -0.10553182377676D-13
   3   1   3   3 -0.19622590722870D+00  0.19622590723071D+00
   1   2   3   3 -0.85981339759835D-13  0.33147592646605D-12
   2   2   3   3 -0.10649414804340D-13 -0.76190136047548D-12
   3   2   3   3 -0.13735940545105D-12  0.46677163511859D-14
   1   3   3   3  0.26875637862945D-12 -0.14062216504569D-13
   2   3   3   3 -0.89656657375290D-13  0.16239010621572D-13
   3   3   3   3  0.40652952862911D+01 -0.15576822411027D-15
   1   4   3   3 -0.37288392131171D-13  0.15458963213912D-13
   2   4   3   3  0.29649937859980D-12  0.27589203632595D-12
   3   4   3   3 -0.14718791469519D-12 -0.14947548506065D-12
   1   5   3   3  0.39359498523914D-13  0.11633546272918D-12
   2   5   3   3 -0.35809165828975D-14 -0.14688541093959D-12
   3   5   3   3 -0.10336816228465D-13 -0.10746448355619D-13
   1   1   1   4 -0.41032764862563D-14  0.34257509100806D-12
   2   1   1   4 -0.19218944660373D-10  0.36051687221813D+00
   3   1   1   4 -0.12042418971140D-13  0.41262388624727D-13
   1   2   1   4 -0.19017730819205D+01 -0.19017730819601D+01
   2   2   1   4 -0.16483187129606D-12 -0.18869936845328D-12
   3   2   1   4 -0.32501002589365D-14  0.45310093121518D-14
   1   3   1   4 -0.63360712423895D-12  0.60252930854246D-12
   2   3   1   4  0.15126419189619D+01 -0.15126419189622D+01
   3   3   1   4  0.66061427634646D-14 -0.36275015783814D-14
   1   4   1   4  0.46702808798395D+01  0.29377474842294D-18
   2   4   1   4  0.90087268990252D-13  0.11723035416202D-15
   3   4   1   4  0.12501628824638D-14 -0.87185790144904D-17
   1   5   1   4  0.55135917050904D+00  0.55135917049981D+00
   2   5   1   4  0.13872155961901D-12  0.13196683171700D-12
   3   5   1   4 -0.42935227342510D-15 -0.22845917889812D-15
   1   1   2   4  0.63877071165826D-11  0.11539133941004D+01
   2   1   2   4 -0.77392292428747D-14 -0.90303802495585D-11
   3   1   2   4  0.46643379594924D-16 -0.32814746523272D-15
   1   2   2   4  0.77953708407927D-10  0.77940803954218D-10
   2   2   2   4 -0.39102201080863D+00 -0.39102201080343D+00
   3   2   2   4 -0.16161767765961D-13  0.92299927911605D-14
   1   3   2   4  0.35058475800627D+01 -0.35058475800490D+01
   2   3   2   4  0.16827238934072D-10 -0.16827042925432D-10
   3   3   2   4 -0.18169011733793D-14  0.10739729565987D-15
   1   4   2   4  0.65512025601074D-10 -0.34706330660054D-14
   2   4   2   4  0.84588768810486D+01  0.53577712481864D-17
   3   4   2   4 -0.18271278016320D-14 -0.30858321173412D-14
   1   5   2   4  0.10458847783677D-10  0.10432367569985D-10
   2   5   2   4 -0.10486460248842D+01 -0.10486460248823D+01
   3   5   2   4  0.23838399122054D-13  0.92797440591348D-14
   1   1   3   4  0.62073182511941D-13  0.10223297345037D-11
   2   1   3   4  0.51629660010653D-15  0.33344172674374D-12
   3   1   3   4  0.12759297462665D-13  0.23784761138905D-12
   1   2   3   4 -0.61057715193033D-12 -0.64145567094705D-12
   2   2   3   4 -0.21988532352951D-12 -0.20559435364430D-12
   3   2   3   4 -0.14402121617495D+00 -0.14402121617640D+00
   1   3   3   4 -0.13406189248113D-12  0.96892743692392D-13
   2   3   3   4 -0.83020037905072D-13  0.85444175927888D-13
   3   3   3   4  0.13194218993159D-13 -0.16658319303578D-13
   1   4   3   4 -0.12466775815239D-12 -0.54737219921612D-14
   2   4   3   4  0.56395886740260D-13  0.17089326847927D-14
   3   4   3   4  0.39266290888468D+01  0.35688872763837D-18
   1   5   3   4 -0.10077173533480D-12 -0.90833282971840D-13
   2   5   3   4  0.10015397580986D-12  0.10194465605071D-12
   3   5   3   4 -0.13042586993314D+01 -0.13042586993313D+01
   1   1   1   5  0.12973842973310D-10  0.13054224333576D-10
   2   1   1   5  0.26790789740569D+00  0.26790789740213D+00
   3   1   1   5 -0.71720365343348D-14 -0.55027167939274D-14
   1   2   1   5 -0.34956472987589D+01  0.26270211027770D-11
   2   2   1   5 -0.28743602305275D-10 -0.13906215711684D-13
   3   2   1   5 -0.66087080514806D-16 -0.67337305773603D-14
   1   3   1   5 -0.98654160041525D-14 -0.32498571666275D-11
   2   3   1   5 -0.26590092566565D-12 -0.27853632464921D+00
   3   3   1   5 -0.69157789089141D-14  0.26743593564095D-13
   1   4   1   5  0.55135798224752D+00 -0.55135798224686D+00
   2   4   1   5 -0.87187786455611D-13  0.10189330022144D-12
   3   4   1   5 -0.18651486404528D-14 -0.10833914976305D-15
   1   5   1   5  0.43311557414304D+01  0.20130485752723D-15
   2   5   1   5 -0.43930751628355D-11  0.54846029975729D-14
   3   5   1   5 -0.14473421521559D-14  0.85004814048205D-15
   1   1   2   5  0.28498160791929D+00  0.28498160791877D+00
   2   1   2   5 -0.12793528662421D-12 -0.11933889034535D-12
   3   1   2   5  0.15080264577346D-15 -0.78524174029519D-16
   1   2   2   5  0.69269974515398D-12  0.19077888797576D-14
   2   2   2   5 -0.19000724879954D+01  0.18005216241554D-12
   3   2   2   5  0.64421165669118D-14 -0.14075276867125D-14
   1   3   2   5  0.83575854773026D-12 -0.39642276490300D+00
   2   3   2   5 -0.22794204057695D-13 -0.16989741831827D-12
   3   3   2   5  0.51380000880530D-16 -0.22315610145431D-14
   1   4   2   5  0.20442935065064D-12 -0.21754223363127D-12
   2   4   2   5 -0.10486413430172D+01  0.10486413430177D+01
   3   4   2   5  0.36982043016714D-14 -0.65053354803025D-14
   1   5   2   5  0.26139356471602D-12  0.64539548778930D-14
   2   5   2   5  0.37358393826794D+01  0.16148288408610D-15
   3   5   2   5 -0.67200394937810D-14 -0.16342646516855D-14
   1   1   3   5  0.81104455765809D-11  0.85599726659633D-11
   2   1   3   5  0.12619926647279D-10  0.12235262390744D-10
   3   1   3   5  0.61168122133799D-12  0.49162587479808D-12
   1   2   3   5 -0.55132078928198D-10  0.23081160343275D-13
   2   2   3   5 -0.23179524394020D-10 -0.19568720991208D-12
   3   2   3   5  0.26705761208105D+01  0.69202952991039D-11
   1   3   3   5  0.13542178365162D-12  0.80927302064258D-11
   2   3   3   5  0.13865185754513D-13  0.44791575379697D-11
   3   3   3   5 -0.13623132878798D-13 -0.12337689516580D-12
   1   4   3   5 -0.31353569171982D-11  0.31561975075422D-11
   2   4   3   5 -0.21356358978955D-10  0.21347309517865D-10
   3   4   3   5 -0.13042660853158D+01  0.13042660853166D+01
   1   5   3   5 -0.10001638953274D-10 -0.11365031421180D-13
   2   5   3   5 -0.15218261385813D-10 -0.66406754845473D-13
   3   5   3   5  0.36384414585159D+01  0.25727219563799D-16

 List of bloks and their characteristics 
  
 2nd derivatives (non-stat.)  - # elements :     324
 qpt  0.00000000E+00  0.00000000E+00  0.00000000E+00   1.0
  
 2nd derivatives (non-stat.)  - # elements :     225
 qpt  2.50000000E-01  0.00000000E+00  0.00000000E+00   1.0
  
 2nd derivatives (non-stat.)  - # elements :     225
 qpt  2.50000000E-01  2.50000000E-01  2.50000000E-01   1.0
  
 2nd derivatives (non-stat.)  - # elements :     225
 qpt  5.00000000E-01  5.00000000E-01  0.00000000E+00   1.0
  
 2nd derivatives (non-stat.)  - # elements :     225
 qpt  5.00000000E-01  5.00000000E-01  5.00000000E-01   1.0
  
 2nd derivatives (non-stat.)  - # elements :     225
 qpt  5.00000000E-01  2.50000000E-01  2.50000000E-01   1.0
  
 2nd derivatives (non-stat.)  - # elements :     225
 qpt  2.50000000E-01  2.50000000E-01  0.00000000E+00   1.0
  
 2nd derivatives (non-stat.)  - # elements :     225
 qpt  5.00000000E-01  5.00000000E-01  2.50000000E-01   1.0
  
 2nd derivatives (non-stat.)  - # elements :     225
 qpt  5.00000000E-01  0.00000000E+00  0.00000000E+00   1.0
  
 2nd derivatives (non-stat.)  - # elements :     225
 qpt  5.00000000E-01  2.50000000E-01  0.00000000E+00   1.0
