
.Version 5.6.2  of ABINIT 
.(sequential version, prepared for a ia64_linux_intel10.1 computer) 

.Copyright (C) 1998-2008 ABINIT group . 
 ABINIT comes with ABSOLUTELY NO WARRANTY.
 It is free software, and you are welcome to redistribute it
 under certain conditions (GNU General Public License,
 see ~abinit/COPYING or http://www.gnu.org/copyleft/gpl.txt).

 ABINIT is a project of the Universite Catholique de Louvain,
 Corning Inc. and other collaborators, see ~abinit/doc/developers/contributors.txt .
 Please read ~abinit/doc/users/acknowledgments.html for suggested
 acknowledgments of the ABINIT effort.
 For more information, see http://www.abinit.org .

.Starting date : Fri 19 Sep 2008.
  
- input  file    -> perovskite-R.in
- output file    -> perovskite-R.out
- root for input  files -> perovskite-Gamma_o
- root for output files -> perovskite-R_o


 DATASET    1 : space group Pm -3 m (#221); Bravais cP (primitive cubic)
================================================================================
 Values of the parameters that define the memory need for DATASET  1 (RF).
   intxc =         0    iscf =         5 xclevel =         1  lmnmax =         6
   lnmax =         6   mband =        22  mffmem =         1   mgfft =        45
P  mkmem =       512  mkqmem =       512  mk1mem =       512 mpssoang=         4
     mpw =      5040  mqgrid =      3001   natom =         5    nfft =     91125
    nkpt =       512  nloalg =         4  nspden =         1 nspinor =         1
  nsppol =         1    nsym =        48  n1xccc =         0  ntypat =         3
  occopt =         1
================================================================================
P This job should need less than                    2704.806 Mbytes of memory.
  Rough estimation (10% accuracy) of disk space for files :
  WF disk file :    866.252 Mbytes ; DEN or POT disk file :      0.697 Mbytes.
================================================================================

 -outvars: echo values of preprocessed input variables --------
     acell    7.4644182249E+00  7.4644182249E+00  7.4644182249E+00 Bohr
       amu    2.07200000E+02  4.78800000E+01  1.59994000E+01
    diemac    9.00000000E+00
      ecut    4.00000000E+01 Hartree
    irdwfk         1
      iscf         5
       ixc         3
    jdtset      1
       kpt    6.25000000E-02  6.25000000E-02  6.25000000E-02
              1.87500000E-01  6.25000000E-02  6.25000000E-02
              3.12500000E-01  6.25000000E-02  6.25000000E-02
              4.37500000E-01  6.25000000E-02  6.25000000E-02
             -4.37500000E-01  6.25000000E-02  6.25000000E-02
             -3.12500000E-01  6.25000000E-02  6.25000000E-02
             -1.87500000E-01  6.25000000E-02  6.25000000E-02
             -6.25000000E-02  6.25000000E-02  6.25000000E-02
              6.25000000E-02  1.87500000E-01  6.25000000E-02
              1.87500000E-01  1.87500000E-01  6.25000000E-02
              3.12500000E-01  1.87500000E-01  6.25000000E-02
              4.37500000E-01  1.87500000E-01  6.25000000E-02
             -4.37500000E-01  1.87500000E-01  6.25000000E-02
             -3.12500000E-01  1.87500000E-01  6.25000000E-02
             -1.87500000E-01  1.87500000E-01  6.25000000E-02
             -6.25000000E-02  1.87500000E-01  6.25000000E-02
              6.25000000E-02  3.12500000E-01  6.25000000E-02
              1.87500000E-01  3.12500000E-01  6.25000000E-02
              3.12500000E-01  3.12500000E-01  6.25000000E-02
              4.37500000E-01  3.12500000E-01  6.25000000E-02
             -4.37500000E-01  3.12500000E-01  6.25000000E-02
             -3.12500000E-01  3.12500000E-01  6.25000000E-02
             -1.87500000E-01  3.12500000E-01  6.25000000E-02
             -6.25000000E-02  3.12500000E-01  6.25000000E-02
              6.25000000E-02  4.37500000E-01  6.25000000E-02
              1.87500000E-01  4.37500000E-01  6.25000000E-02
              3.12500000E-01  4.37500000E-01  6.25000000E-02
              4.37500000E-01  4.37500000E-01  6.25000000E-02
             -4.37500000E-01  4.37500000E-01  6.25000000E-02
             -3.12500000E-01  4.37500000E-01  6.25000000E-02
             -1.87500000E-01  4.37500000E-01  6.25000000E-02
             -6.25000000E-02  4.37500000E-01  6.25000000E-02
              6.25000000E-02 -4.37500000E-01  6.25000000E-02
              1.87500000E-01 -4.37500000E-01  6.25000000E-02
              3.12500000E-01 -4.37500000E-01  6.25000000E-02
              4.37500000E-01 -4.37500000E-01  6.25000000E-02
             -4.37500000E-01 -4.37500000E-01  6.25000000E-02
             -3.12500000E-01 -4.37500000E-01  6.25000000E-02
             -1.87500000E-01 -4.37500000E-01  6.25000000E-02
             -6.25000000E-02 -4.37500000E-01  6.25000000E-02
              6.25000000E-02 -3.12500000E-01  6.25000000E-02
              1.87500000E-01 -3.12500000E-01  6.25000000E-02
              3.12500000E-01 -3.12500000E-01  6.25000000E-02
              4.37500000E-01 -3.12500000E-01  6.25000000E-02
             -4.37500000E-01 -3.12500000E-01  6.25000000E-02
             -3.12500000E-01 -3.12500000E-01  6.25000000E-02
             -1.87500000E-01 -3.12500000E-01  6.25000000E-02
             -6.25000000E-02 -3.12500000E-01  6.25000000E-02
              6.25000000E-02 -1.87500000E-01  6.25000000E-02
              1.87500000E-01 -1.87500000E-01  6.25000000E-02
                       outvar1 : prtvol=0, do not print more k-points.
   kptrlen    5.97153458E+01
    kptopt         3
  kptrlatt    8  0  0   0  8  0   0  0  8
P    mkmem       512
P   mkqmem       512
P   mk1mem       512
     natom         5
     nband        22
    ndtset         1
     ngfft        45      45      45
      nkpt       512
      nqpt         1
     nstep        70
      nsym        48
    ntypat         3
       occ    2.000000  2.000000  2.000000  2.000000  2.000000  2.000000
              2.000000  2.000000  2.000000  2.000000  2.000000  2.000000
              2.000000  2.000000  2.000000  2.000000  2.000000  2.000000
              2.000000  2.000000  2.000000  2.000000
 optdriver         1
       qpt    5.00000000E-01  5.00000000E-01  5.00000000E-01
   rfatpol         1       5
     rfdir         1       1       1
    rfphon         1
    shiftk    5.00000000E-01  5.00000000E-01  5.00000000E-01
   spgroup       221
    symrel    1  0  0   0  1  0   0  0  1      -1  0  0   0 -1  0   0  0 -1
             -1  0  0   0  1  0   0  0 -1       1  0  0   0 -1  0   0  0  1
             -1  0  0   0 -1  0   0  0  1       1  0  0   0  1  0   0  0 -1
              1  0  0   0 -1  0   0  0 -1      -1  0  0   0  1  0   0  0  1
              0  1  0   1  0  0   0  0  1       0 -1  0  -1  0  0   0  0 -1
              0 -1  0   1  0  0   0  0 -1       0  1  0  -1  0  0   0  0  1
              0 -1  0  -1  0  0   0  0  1       0  1  0   1  0  0   0  0 -1
              0  1  0  -1  0  0   0  0 -1       0 -1  0   1  0  0   0  0  1
              0  0  1   1  0  0   0  1  0       0  0 -1  -1  0  0   0 -1  0
              0  0 -1   1  0  0   0 -1  0       0  0  1  -1  0  0   0  1  0
              0  0 -1  -1  0  0   0  1  0       0  0  1   1  0  0   0 -1  0
              0  0  1  -1  0  0   0 -1  0       0  0 -1   1  0  0   0  1  0
              1  0  0   0  0  1   0  1  0      -1  0  0   0  0 -1   0 -1  0
             -1  0  0   0  0  1   0 -1  0       1  0  0   0  0 -1   0  1  0
             -1  0  0   0  0 -1   0  1  0       1  0  0   0  0  1   0 -1  0
              1  0  0   0  0 -1   0 -1  0      -1  0  0   0  0  1   0  1  0
              0  1  0   0  0  1   1  0  0       0 -1  0   0  0 -1  -1  0  0
              0 -1  0   0  0  1  -1  0  0       0  1  0   0  0 -1   1  0  0
              0 -1  0   0  0 -1   1  0  0       0  1  0   0  0  1  -1  0  0
              0  1  0   0  0 -1  -1  0  0       0 -1  0   0  0  1   1  0  0
              0  0  1   0  1  0   1  0  0       0  0 -1   0 -1  0  -1  0  0
              0  0 -1   0  1  0  -1  0  0       0  0  1   0 -1  0   1  0  0
              0  0 -1   0 -1  0   1  0  0       0  0  1   0  1  0  -1  0  0
              0  0  1   0 -1  0  -1  0  0       0  0 -1   0  1  0   1  0  0
    tolvrs    1.00000000E-08
     typat    1  2  3  3  3
       wtk      0.00195    0.00195    0.00195    0.00195    0.00195    0.00195
                0.00195    0.00195    0.00195    0.00195    0.00195    0.00195
                0.00195    0.00195    0.00195    0.00195    0.00195    0.00195
                0.00195    0.00195    0.00195    0.00195    0.00195    0.00195
                0.00195    0.00195    0.00195    0.00195    0.00195    0.00195
                0.00195    0.00195    0.00195    0.00195    0.00195    0.00195
                0.00195    0.00195    0.00195    0.00195    0.00195    0.00195
                0.00195    0.00195    0.00195    0.00195    0.00195    0.00195
                0.00195    0.00195
                outvar1 : prtvol=0, do not print more k-points.
    xangst    0.0000000000E+00  0.0000000000E+00  0.0000000000E+00
              1.9750000000E+00  1.9750000000E+00  1.9750000000E+00
              0.0000000000E+00  1.9750000000E+00  1.9750000000E+00
              1.9750000000E+00  0.0000000000E+00  1.9750000000E+00
              1.9750000000E+00  1.9750000000E+00  0.0000000000E+00
     xcart    0.0000000000E+00  0.0000000000E+00  0.0000000000E+00
              3.7322091124E+00  3.7322091124E+00  3.7322091124E+00
              0.0000000000E+00  3.7322091124E+00  3.7322091124E+00
              3.7322091124E+00  0.0000000000E+00  3.7322091124E+00
              3.7322091124E+00  3.7322091124E+00  0.0000000000E+00
      xred    0.0000000000E+00  0.0000000000E+00  0.0000000000E+00
              5.0000000000E-01  5.0000000000E-01  5.0000000000E-01
              0.0000000000E+00  5.0000000000E-01  5.0000000000E-01
              5.0000000000E-01  0.0000000000E+00  5.0000000000E-01
              5.0000000000E-01  5.0000000000E-01  0.0000000000E+00
     znucl     82.00000   22.00000    8.00000

================================================================================

 chkinp: Checking input parameters for consistency, jdtset= 1.

================================================================================
== DATASET  1 ==================================================================

 Real(R)+Recip(G) space primitive vectors, cartesian coordinates (Bohr,Bohr^-1):
 R(1)=  7.4644182  0.0000000  0.0000000  G(1)=  0.1339689  0.0000000  0.0000000
 R(2)=  0.0000000  7.4644182  0.0000000  G(2)=  0.0000000  0.1339689  0.0000000
 R(3)=  0.0000000  0.0000000  7.4644182  G(3)=  0.0000000  0.0000000  0.1339689
 Unit cell volume ucvol=  4.1589902E+02 bohr^3
 Angles (23,13,12)=  9.00000000E+01  9.00000000E+01  9.00000000E+01 degrees
 setup1 : take into account q-point for computing boxcut.

 getcut: wavevector=  0.5000  0.5000  0.5000  ngfft=  45  45  45
         ecut(hartree)=     40.000   => boxcut(ratio)=   2.02447

--- Pseudopotential description ------------------------------------------------
- pspini: atom type   1  psp file is pot_A
- pspatm: opening atomic psp file    pot_A
 (Xe+4f14)+6s1.8 5d10 6p0.2 5f0.05;rcs=rcd=2.0(exnc11),rcp=2.0(26),rcf=1.3(11) no chem-hard; ecut 19/25
  82.00000  14.00000    960808                znucl, zion, pspdat
    4    3    3    3      2001   0.00000      pspcod,pspxc,lmax,lloc,mmax,r2well
    0   0.000   0.000    2   2.0042666        l,e99.0,e99.9,nproj,rcpsp
   0.00000000   0.00000000   0.00000000   0.00000000     rms, ekb1, ekb2, epsatm
    1   0.000   0.000    2   2.0042666        l,e99.0,e99.9,nproj,rcpsp
   0.00000000   0.00000000   0.00000000   0.00000000     rms, ekb1, ekb2, epsatm
    2   0.000   0.000    2   2.0042666        l,e99.0,e99.9,nproj,rcpsp
   0.00000000   0.00000000   0.00000000   0.00000000     rms, ekb1, ekb2, epsatm
    3   0.000   0.000    0   1.2991516        l,e99.0,e99.9,nproj,rcpsp
   0.00000000   0.00000000   0.00000000   0.00000000     rms, ekb1, ekb2, epsatm
    0.00000000000000    0.00000000000000    0.00000000000000   rchrg,fchrg,qchrg
 pspatm: epsatm=   26.97912547
         --- l  ekb(1:nproj) -->
             0    4.600411    3.774203
             1    3.392405    3.894354
             2   -5.902586    0.629658
 pspatm: atomic psp has been read  and splines computed

- pspini: atom type   2  psp file is pot_B
- pspatm: opening atomic psp file    pot_B
 Titane.ion 3s2.3p6.4s0.3d2 rcd=1.65, rcs=rc0=1.25, ecut 32/54
  22.00000  12.00000    940000                znucl, zion, pspdat
    4    3    2    2      2001   0.00000      pspcod,pspxc,lmax,lloc,mmax,r2well
    0   0.000   0.000    2   1.2533577        l,e99.0,e99.9,nproj,rcpsp
   0.00000000   0.00000000   0.00000000   0.00000000     rms, ekb1, ekb2, epsatm
    1   0.000   0.000    2   1.2533577        l,e99.0,e99.9,nproj,rcpsp
   0.00000000   0.00000000   0.00000000   0.00000000     rms, ekb1, ekb2, epsatm
    2   0.000   0.000    0   1.6491622        l,e99.0,e99.9,nproj,rcpsp
   0.00000000   0.00000000   0.00000000   0.00000000     rms, ekb1, ekb2, epsatm
    0.00000000000000    0.00000000000000    0.00000000000000   rchrg,fchrg,qchrg
 pspatm: epsatm=    4.67708954
         --- l  ekb(1:nproj) -->
             0    9.517316   -2.344682
             1    5.011406   -0.741179
 pspatm: atomic psp has been read  and splines computed

- pspini: atom type   3  psp file is pot_O
- pspatm: opening atomic psp file    pot_O
 Compromise psp for oxygen with rc=1.5 ec=25 double reference
   8.00000   6.00000    980710                znucl, zion, pspdat
    5    3    1    1       600   0.00000      pspcod,pspxc,lmax,lloc,mmax,r2well
   0.000   0.031                              r1 and al (Hamman grid)
    0   0.000   0.000    2   1.4915765        l,e99.0,e99.9,nproj,rcpsp
   0.00000000   0.00000000   0.00000000   0.00000000     rms, ekb1, ekb2, epsatm
    1   0.000   0.000    0   1.4915765        l,e99.0,e99.9,nproj,rcpsp
   0.00000000   0.00000000   0.00000000   0.00000000     rms, ekb1, ekb2, epsatm
    0.00000000000000    0.00000000000000    0.00000000000000   rchrg,fchrg,qchrg
 pspatm: epsatm=    1.43569736
         --- l  ekb(1:nproj) -->
             0    5.763361   -1.798421
 pspatm: atomic psp has been read  and splines computed

   1.58238551E+03                                ecore*ucvol(ha*bohr**3)
--------------------------------------------------------------------------------

-inwffil : will read wavefunctions from disk file perovskite-Gamma_o_DS1_WFK
- newkpt: read input wf with ikpt,npw=   1    5020, make ikpt,npw=   1    5020
- newkpt: read input wf with ikpt,npw=   2    5028, make ikpt,npw=   2    5028
- newkpt: read input wf with ikpt,npw=   3    5035, make ikpt,npw=   3    5035
- newkpt: read input wf with ikpt,npw=   4    5023, make ikpt,npw=   4    5023
- newkpt: read input wf with ikpt,npw=   4    5023, make ikpt,npw=   5    5023
- newkpt: read input wf with ikpt,npw=   3    5035, make ikpt,npw=   6    5035
- newkpt: read input wf with ikpt,npw=   2    5028, make ikpt,npw=   7    5028
- newkpt: read input wf with ikpt,npw=   1    5020, make ikpt,npw=   8    5020
- newkpt: read input wf with ikpt,npw=   2    5028, make ikpt,npw=   9    5028
- newkpt: read input wf with ikpt,npw=   5    5030, make ikpt,npw=  10    5030
- newkpt: read input wf with ikpt,npw=   6    5036, make ikpt,npw=  11    5036
- newkpt: read input wf with ikpt,npw=   7    5026, make ikpt,npw=  12    5026
- newkpt: read input wf with ikpt,npw=   7    5026, make ikpt,npw=  13    5026
- newkpt: read input wf with ikpt,npw=   6    5036, make ikpt,npw=  14    5036
- newkpt: read input wf with ikpt,npw=   5    5030, make ikpt,npw=  15    5030
- newkpt: read input wf with ikpt,npw=   2    5028, make ikpt,npw=  16    5028
- newkpt: read input wf with ikpt,npw=   3    5035, make ikpt,npw=  17    5035
- newkpt: read input wf with ikpt,npw=   6    5036, make ikpt,npw=  18    5036
- newkpt: read input wf with ikpt,npw=   8    5030, make ikpt,npw=  19    5030
- newkpt: read input wf with ikpt,npw=   9    5028, make ikpt,npw=  20    5028
- newkpt: read input wf with ikpt,npw=   9    5028, make ikpt,npw=  21    5028
- newkpt: read input wf with ikpt,npw=   8    5030, make ikpt,npw=  22    5030
- newkpt: read input wf with ikpt,npw=   6    5036, make ikpt,npw=  23    5036
- newkpt: read input wf with ikpt,npw=   3    5035, make ikpt,npw=  24    5035
- newkpt: read input wf with ikpt,npw=   4    5023, make ikpt,npw=  25    5023
- newkpt: read input wf with ikpt,npw=   7    5026, make ikpt,npw=  26    5026
- newkpt: read input wf with ikpt,npw=   9    5028, make ikpt,npw=  27    5028
- newkpt: read input wf with ikpt,npw=  10    5035, make ikpt,npw=  28    5035
- newkpt: read input wf with ikpt,npw=  10    5035, make ikpt,npw=  29    5035
- newkpt: read input wf with ikpt,npw=   9    5028, make ikpt,npw=  30    5028
- newkpt: read input wf with ikpt,npw=   7    5026, make ikpt,npw=  31    5026
- newkpt: read input wf with ikpt,npw=   4    5023, make ikpt,npw=  32    5023
- newkpt: read input wf with ikpt,npw=   4    5023, make ikpt,npw=  33    5023
- newkpt: read input wf with ikpt,npw=   7    5026, make ikpt,npw=  34    5026
- newkpt: read input wf with ikpt,npw=   9    5028, make ikpt,npw=  35    5028
- newkpt: read input wf with ikpt,npw=  10    5035, make ikpt,npw=  36    5035
- newkpt: read input wf with ikpt,npw=  10    5035, make ikpt,npw=  37    5035
- newkpt: read input wf with ikpt,npw=   9    5028, make ikpt,npw=  38    5028
- newkpt: read input wf with ikpt,npw=   7    5026, make ikpt,npw=  39    5026
- newkpt: read input wf with ikpt,npw=   4    5023, make ikpt,npw=  40    5023
- newkpt: read input wf with ikpt,npw=   3    5035, make ikpt,npw=  41    5035
- newkpt: read input wf with ikpt,npw=   6    5036, make ikpt,npw=  42    5036
- newkpt: read input wf with ikpt,npw=   8    5030, make ikpt,npw=  43    5030
- newkpt: read input wf with ikpt,npw=   9    5028, make ikpt,npw=  44    5028
- newkpt: read input wf with ikpt,npw=   9    5028, make ikpt,npw=  45    5028
- newkpt: read input wf with ikpt,npw=   8    5030, make ikpt,npw=  46    5030
- newkpt: read input wf with ikpt,npw=   6    5036, make ikpt,npw=  47    5036
- newkpt: read input wf with ikpt,npw=   3    5035, make ikpt,npw=  48    5035
- newkpt: read input wf with ikpt,npw=   2    5028, make ikpt,npw=  49    5028
- newkpt: read input wf with ikpt,npw=   5    5030, make ikpt,npw=  50    5030
- newkpt : prtvol=0 or 1, do not print more k-points.
 

 ==>  initialize data related to q vector <==

 The list of irreducible perturbations for this q vector is:
    1)    idir= 1    ipert=   1
    2)    idir= 1    ipert=   2
    3)    idir= 1    ipert=   3
    4)    idir= 2    ipert=   3

================================================================================

 The perturbation idir=   2  ipert=   1 is
 symmetric of a previously calculated perturbation.
 So, its SCF calculation is not needed.


 The perturbation idir=   3  ipert=   1 is
 symmetric of a previously calculated perturbation.
 So, its SCF calculation is not needed.


 The perturbation idir=   2  ipert=   2 is
 symmetric of a previously calculated perturbation.
 So, its SCF calculation is not needed.


 The perturbation idir=   3  ipert=   2 is
 symmetric of a previously calculated perturbation.
 So, its SCF calculation is not needed.


 The perturbation idir=   3  ipert=   3 is
 symmetric of a previously calculated perturbation.
 So, its SCF calculation is not needed.


 The perturbation idir=   1  ipert=   4 is
 symmetric of a previously calculated perturbation.
 So, its SCF calculation is not needed.


 The perturbation idir=   2  ipert=   4 is
 symmetric of a previously calculated perturbation.
 So, its SCF calculation is not needed.


 The perturbation idir=   3  ipert=   4 is
 symmetric of a previously calculated perturbation.
 So, its SCF calculation is not needed.


 The perturbation idir=   1  ipert=   5 is
 symmetric of a previously calculated perturbation.
 So, its SCF calculation is not needed.


 The perturbation idir=   2  ipert=   5 is
 symmetric of a previously calculated perturbation.
 So, its SCF calculation is not needed.


 The perturbation idir=   3  ipert=   5 is
 symmetric of a previously calculated perturbation.
 So, its SCF calculation is not needed.


--------------------------------------------------------------------------------
 Perturbation wavevector (in red.coord.)   0.500000  0.500000  0.500000
 Perturbation : displacement of atom   1   along direction   1
 Found     2 symmetries that leave the perturbation invariant.
 symkpt : the number of k-points, thanks to the symmetries,
 is reduced to   288 .

--------------------------------------------------------------------------------

-inwffil : will read wavefunctions from disk file perovskite-Gamma_o_DS1_WFK
- newkpt: read input wf with ikpt,npw=   1    5020, make ikpt,npw=   1    5020
- newkpt: read input wf with ikpt,npw=   2    5028, make ikpt,npw=   2    5028
- newkpt: read input wf with ikpt,npw=   3    5035, make ikpt,npw=   3    5035
- newkpt: read input wf with ikpt,npw=   4    5023, make ikpt,npw=   4    5023
- newkpt: read input wf with ikpt,npw=   4    5023, make ikpt,npw=   5    5023
- newkpt: read input wf with ikpt,npw=   3    5035, make ikpt,npw=   6    5035
- newkpt: read input wf with ikpt,npw=   2    5028, make ikpt,npw=   7    5028
- newkpt: read input wf with ikpt,npw=   1    5020, make ikpt,npw=   8    5020
- newkpt: read input wf with ikpt,npw=   2    5028, make ikpt,npw=   9    5028
- newkpt: read input wf with ikpt,npw=   5    5030, make ikpt,npw=  10    5030
- newkpt: read input wf with ikpt,npw=   6    5036, make ikpt,npw=  11    5036
- newkpt: read input wf with ikpt,npw=   7    5026, make ikpt,npw=  12    5026
- newkpt: read input wf with ikpt,npw=   7    5026, make ikpt,npw=  13    5026
- newkpt: read input wf with ikpt,npw=   6    5036, make ikpt,npw=  14    5036
- newkpt: read input wf with ikpt,npw=   5    5030, make ikpt,npw=  15    5030
- newkpt: read input wf with ikpt,npw=   2    5028, make ikpt,npw=  16    5028
- newkpt: read input wf with ikpt,npw=   3    5035, make ikpt,npw=  17    5035
- newkpt: read input wf with ikpt,npw=   6    5036, make ikpt,npw=  18    5036
- newkpt: read input wf with ikpt,npw=   8    5030, make ikpt,npw=  19    5030
- newkpt: read input wf with ikpt,npw=   9    5028, make ikpt,npw=  20    5028
- newkpt: read input wf with ikpt,npw=   9    5028, make ikpt,npw=  21    5028
- newkpt: read input wf with ikpt,npw=   8    5030, make ikpt,npw=  22    5030
- newkpt: read input wf with ikpt,npw=   6    5036, make ikpt,npw=  23    5036
- newkpt: read input wf with ikpt,npw=   3    5035, make ikpt,npw=  24    5035
- newkpt: read input wf with ikpt,npw=   4    5023, make ikpt,npw=  25    5023
- newkpt: read input wf with ikpt,npw=   7    5026, make ikpt,npw=  26    5026
- newkpt: read input wf with ikpt,npw=   9    5028, make ikpt,npw=  27    5028
- newkpt: read input wf with ikpt,npw=  10    5035, make ikpt,npw=  28    5035
- newkpt: read input wf with ikpt,npw=  10    5035, make ikpt,npw=  29    5035
- newkpt: read input wf with ikpt,npw=   9    5028, make ikpt,npw=  30    5028
- newkpt: read input wf with ikpt,npw=   7    5026, make ikpt,npw=  31    5026
- newkpt: read input wf with ikpt,npw=   4    5023, make ikpt,npw=  32    5023
- newkpt: read input wf with ikpt,npw=   4    5023, make ikpt,npw=  33    5023
- newkpt: read input wf with ikpt,npw=   7    5026, make ikpt,npw=  34    5026
- newkpt: read input wf with ikpt,npw=   9    5028, make ikpt,npw=  35    5028
- newkpt: read input wf with ikpt,npw=  10    5035, make ikpt,npw=  36    5035
- newkpt: read input wf with ikpt,npw=  10    5035, make ikpt,npw=  37    5035
- newkpt: read input wf with ikpt,npw=   9    5028, make ikpt,npw=  38    5028
- newkpt: read input wf with ikpt,npw=   7    5026, make ikpt,npw=  39    5026
- newkpt: read input wf with ikpt,npw=   4    5023, make ikpt,npw=  40    5023
- newkpt: read input wf with ikpt,npw=   3    5035, make ikpt,npw=  41    5035
- newkpt: read input wf with ikpt,npw=   6    5036, make ikpt,npw=  42    5036
- newkpt: read input wf with ikpt,npw=   8    5030, make ikpt,npw=  43    5030
- newkpt: read input wf with ikpt,npw=   9    5028, make ikpt,npw=  44    5028
- newkpt: read input wf with ikpt,npw=   9    5028, make ikpt,npw=  45    5028
- newkpt: read input wf with ikpt,npw=   8    5030, make ikpt,npw=  46    5030
- newkpt: read input wf with ikpt,npw=   6    5036, make ikpt,npw=  47    5036
- newkpt: read input wf with ikpt,npw=   3    5035, make ikpt,npw=  48    5035
- newkpt: read input wf with ikpt,npw=   2    5028, make ikpt,npw=  49    5028
- newkpt: read input wf with ikpt,npw=   5    5030, make ikpt,npw=  50    5030
- newkpt : prtvol=0 or 1, do not print more k-points.
 
--------------------------------------------------------------------------------

-inwffil : will read wavefunctions from disk file perovskite-Gamma_o_DS1_WFK
- newkpt: read input wf with ikpt,npw=  20    4992, make ikpt,npw=   1    4992
- newkpt: read input wf with ikpt,npw=  19    5007, make ikpt,npw=   2    5007
- newkpt: read input wf with ikpt,npw=  16    5025, make ikpt,npw=   3    5025
- newkpt: read input wf with ikpt,npw=  10    5035, make ikpt,npw=   4    5035
- newkpt: read input wf with ikpt,npw=  10    5035, make ikpt,npw=   5    5035
- newkpt: read input wf with ikpt,npw=  16    5025, make ikpt,npw=   6    5025
- newkpt: read input wf with ikpt,npw=  19    5007, make ikpt,npw=   7    5007
- newkpt: read input wf with ikpt,npw=  20    4992, make ikpt,npw=   8    4992
- newkpt: read input wf with ikpt,npw=  19    5007, make ikpt,npw=   9    5007
- newkpt: read input wf with ikpt,npw=  18    5012, make ikpt,npw=  10    5012
- newkpt: read input wf with ikpt,npw=  15    5027, make ikpt,npw=  11    5027
- newkpt: read input wf with ikpt,npw=   9    5028, make ikpt,npw=  12    5028
- newkpt: read input wf with ikpt,npw=   9    5028, make ikpt,npw=  13    5028
- newkpt: read input wf with ikpt,npw=  15    5027, make ikpt,npw=  14    5027
- newkpt: read input wf with ikpt,npw=  18    5012, make ikpt,npw=  15    5012
- newkpt: read input wf with ikpt,npw=  19    5007, make ikpt,npw=  16    5007
- newkpt: read input wf with ikpt,npw=  16    5025, make ikpt,npw=  17    5025
- newkpt: read input wf with ikpt,npw=  15    5027, make ikpt,npw=  18    5027
- newkpt: read input wf with ikpt,npw=  13    5026, make ikpt,npw=  19    5026
- newkpt: read input wf with ikpt,npw=   7    5026, make ikpt,npw=  20    5026
- newkpt: read input wf with ikpt,npw=   7    5026, make ikpt,npw=  21    5026
- newkpt: read input wf with ikpt,npw=  13    5026, make ikpt,npw=  22    5026
- newkpt: read input wf with ikpt,npw=  15    5027, make ikpt,npw=  23    5027
- newkpt: read input wf with ikpt,npw=  16    5025, make ikpt,npw=  24    5025
- newkpt: read input wf with ikpt,npw=  10    5035, make ikpt,npw=  25    5035
- newkpt: read input wf with ikpt,npw=   9    5028, make ikpt,npw=  26    5028
- newkpt: read input wf with ikpt,npw=   7    5026, make ikpt,npw=  27    5026
- newkpt: read input wf with ikpt,npw=   4    5023, make ikpt,npw=  28    5023
- newkpt: read input wf with ikpt,npw=   4    5023, make ikpt,npw=  29    5023
- newkpt: read input wf with ikpt,npw=   7    5026, make ikpt,npw=  30    5026
- newkpt: read input wf with ikpt,npw=   9    5028, make ikpt,npw=  31    5028
- newkpt: read input wf with ikpt,npw=  10    5035, make ikpt,npw=  32    5035
- newkpt: read input wf with ikpt,npw=  10    5035, make ikpt,npw=  33    5035
- newkpt: read input wf with ikpt,npw=   9    5028, make ikpt,npw=  34    5028
- newkpt: read input wf with ikpt,npw=   7    5026, make ikpt,npw=  35    5026
- newkpt: read input wf with ikpt,npw=   4    5023, make ikpt,npw=  36    5023
- newkpt: read input wf with ikpt,npw=   4    5023, make ikpt,npw=  37    5023
- newkpt: read input wf with ikpt,npw=   7    5026, make ikpt,npw=  38    5026
- newkpt: read input wf with ikpt,npw=   9    5028, make ikpt,npw=  39    5028
- newkpt: read input wf with ikpt,npw=  10    5035, make ikpt,npw=  40    5035
- newkpt: read input wf with ikpt,npw=  16    5025, make ikpt,npw=  41    5025
- newkpt: read input wf with ikpt,npw=  15    5027, make ikpt,npw=  42    5027
- newkpt: read input wf with ikpt,npw=  13    5026, make ikpt,npw=  43    5026
- newkpt: read input wf with ikpt,npw=   7    5026, make ikpt,npw=  44    5026
- newkpt: read input wf with ikpt,npw=   7    5026, make ikpt,npw=  45    5026
- newkpt: read input wf with ikpt,npw=  13    5026, make ikpt,npw=  46    5026
- newkpt: read input wf with ikpt,npw=  15    5027, make ikpt,npw=  47    5027
- newkpt: read input wf with ikpt,npw=  16    5025, make ikpt,npw=  48    5025
- newkpt: read input wf with ikpt,npw=  19    5007, make ikpt,npw=  49    5007
- newkpt: read input wf with ikpt,npw=  18    5012, make ikpt,npw=  50    5012
- newkpt : prtvol=0 or 1, do not print more k-points.
 
 Initialisation of the first-order wave-functions :
  ireadwf=   0
P newkpt: treating     22 bands with npw=    4992 for ikpt=   1
P newkpt: treating     22 bands with npw=    5007 for ikpt=   2
P newkpt: treating     22 bands with npw=    5025 for ikpt=   3
P newkpt: treating     22 bands with npw=    5035 for ikpt=   4
P newkpt: treating     22 bands with npw=    5035 for ikpt=   5
P newkpt: treating     22 bands with npw=    5025 for ikpt=   6
P newkpt: treating     22 bands with npw=    5007 for ikpt=   7
P newkpt: treating     22 bands with npw=    4992 for ikpt=   8
P newkpt: treating     22 bands with npw=    5007 for ikpt=   9
P newkpt: treating     22 bands with npw=    5012 for ikpt=  10
P newkpt: treating     22 bands with npw=    5027 for ikpt=  11
P newkpt: treating     22 bands with npw=    5028 for ikpt=  12
P newkpt: treating     22 bands with npw=    5028 for ikpt=  13
P newkpt: treating     22 bands with npw=    5027 for ikpt=  14
P newkpt: treating     22 bands with npw=    5012 for ikpt=  15
P newkpt: treating     22 bands with npw=    5007 for ikpt=  16
P newkpt: treating     22 bands with npw=    5025 for ikpt=  17
P newkpt: treating     22 bands with npw=    5027 for ikpt=  18
P newkpt: treating     22 bands with npw=    5026 for ikpt=  19
P newkpt: treating     22 bands with npw=    5026 for ikpt=  20
P newkpt: treating     22 bands with npw=    5026 for ikpt=  21
P newkpt: treating     22 bands with npw=    5026 for ikpt=  22
P newkpt: treating     22 bands with npw=    5027 for ikpt=  23
P newkpt: treating     22 bands with npw=    5025 for ikpt=  24
P newkpt: treating     22 bands with npw=    5035 for ikpt=  25
P newkpt: treating     22 bands with npw=    5028 for ikpt=  26
P newkpt: treating     22 bands with npw=    5026 for ikpt=  27
P newkpt: treating     22 bands with npw=    5023 for ikpt=  28
P newkpt: treating     22 bands with npw=    5023 for ikpt=  29
P newkpt: treating     22 bands with npw=    5026 for ikpt=  30
P newkpt: treating     22 bands with npw=    5028 for ikpt=  31
P newkpt: treating     22 bands with npw=    5035 for ikpt=  32
P newkpt: treating     22 bands with npw=    5035 for ikpt=  33
P newkpt: treating     22 bands with npw=    5028 for ikpt=  34
P newkpt: treating     22 bands with npw=    5026 for ikpt=  35
P newkpt: treating     22 bands with npw=    5023 for ikpt=  36
P newkpt: treating     22 bands with npw=    5023 for ikpt=  37
P newkpt: treating     22 bands with npw=    5026 for ikpt=  38
P newkpt: treating     22 bands with npw=    5028 for ikpt=  39
P newkpt: treating     22 bands with npw=    5035 for ikpt=  40
P newkpt: treating     22 bands with npw=    5025 for ikpt=  41
P newkpt: treating     22 bands with npw=    5027 for ikpt=  42
P newkpt: treating     22 bands with npw=    5026 for ikpt=  43
P newkpt: treating     22 bands with npw=    5026 for ikpt=  44
P newkpt: treating     22 bands with npw=    5026 for ikpt=  45
P newkpt: treating     22 bands with npw=    5026 for ikpt=  46
P newkpt: treating     22 bands with npw=    5027 for ikpt=  47
P newkpt: treating     22 bands with npw=    5025 for ikpt=  48
P newkpt: treating     22 bands with npw=    5007 for ikpt=  49
P newkpt: treating     22 bands with npw=    5012 for ikpt=  50
  newkpt: prtvol=0 or 1, do not print more k-points.
 

     iter   2DEtotal(Ha)        deltaE(Ha) residm    vres2
-ETOT  1   5409.5361949824     -4.233E+03 5.585E+01 2.453E+07
 ETOT  2   3663.3969442264     -1.746E+03 6.859E+01 1.199E+07
 ETOT  3   44.600644942521     -3.619E+03 5.602E+00 2.085E+05
 ETOT  4   17.390301299431     -2.721E+01 5.532E-01 6.790E+04
 ETOT  5   1.4352723458078     -1.596E+01 2.089E-02 4.511E+02
 ETOT  6   1.3922033199060     -4.307E-02 1.475E-03 1.375E+02
 ETOT  7   1.3508209964666     -4.138E-02 2.214E-04 3.474E+01
 ETOT  8   1.3479023628815     -2.919E-03 7.606E-05 1.819E+01
 ETOT  9   1.3444531090690     -3.449E-03 5.164E-05 9.397E+00
 ETOT 10   1.3440305831527     -4.225E-04 9.594E-06 7.350E+00
 ETOT 11   1.3430280592320     -1.003E-03 3.246E-06 1.468E-01
 ETOT 12   1.3429989012538     -2.916E-05 2.399E-06 1.735E-02
 ETOT 13   1.3429939033185     -4.998E-06 3.576E-07 9.055E-04
 ETOT 14   1.3429933543130     -5.490E-07 3.676E-07 6.954E-04
 ETOT 15   1.3429932770714     -7.724E-08 5.829E-08 5.860E-04
 ETOT 16   1.3429931276960     -1.494E-07 4.759E-08 1.213E-04
 ETOT 17   1.3429931035071     -2.419E-08 1.059E-08 1.118E-04
 ETOT 18   1.3429930869415     -1.657E-08 7.897E-09 2.740E-05
 ETOT 19   1.3429930816064     -5.335E-09 2.040E-09 6.573E-06
 ETOT 20   1.3429930790453     -2.561E-09 1.368E-09 8.596E-07
 ETOT 21   1.3429930786306     -4.147E-10 4.545E-10 5.258E-07
 ETOT 22   1.3429930784214     -2.092E-10 2.771E-10 5.705E-07
 ETOT 23   1.3429930782922     -1.291E-10 9.391E-11 3.794E-07
 ETOT 24   1.3429930782868     -5.457E-12 5.787E-11 1.124E-07
 ETOT 25   1.3429930782886      1.819E-12 1.985E-11 1.070E-07
 ETOT 26   1.3429930782977      9.095E-12 1.178E-11 2.991E-08
 ETOT 27   1.3429930782449     -5.275E-11 4.402E-12 3.554E-08
 ETOT 28   1.3429930782686      2.365E-11 2.840E-12 8.749E-09

 At SCF step   28       vres2   =  8.75E-09 < tolvrs=  1.00E-08 =>converged.
================================================================================

 ----iterations are completed or convergence reached----

 Mean square residual over all n,k,spin=   1.4831E-14; max=  2.8404E-12
   0.0625  0.0625  0.0625    1  4.37065E-14 kpt; spin; max resid(k); each band:
 1.51E-16 1.57E-16 5.71E-17 1.41E-16 3.60E-16 4.69E-16 2.82E-16 1.11E-16
 1.76E-16 1.71E-16 5.25E-17 1.94E-16 3.00E-15 1.56E-14 1.06E-14 1.10E-14
 2.55E-14 2.69E-14 5.54E-15 4.37E-14 2.00E-14 2.10E-14
   0.1875  0.0625  0.0625    1  3.74936E-14 kpt; spin; max resid(k); each band:
 1.56E-16 1.44E-16 1.60E-16 5.08E-17 4.43E-16 4.02E-16 1.45E-16 1.82E-16
 2.51E-16 2.07E-17 4.76E-17 1.75E-16 1.70E-15 1.48E-14 1.48E-14 5.69E-15
 3.70E-14 2.13E-14 1.18E-14 2.55E-14 3.30E-14 3.75E-14
   0.3125  0.0625  0.0625    1  5.00811E-14 kpt; spin; max resid(k); each band:
 1.60E-16 1.35E-16 1.58E-16 5.07E-17 6.14E-16 2.45E-16 1.84E-16 1.62E-16
 2.28E-16 8.11E-17 4.64E-17 1.18E-16 2.71E-15 1.93E-14 1.67E-14 1.06E-14
 5.01E-14 2.50E-14 2.13E-14 4.70E-14 3.23E-14 3.73E-14
   0.4375  0.0625  0.0625    1  6.70744E-14 kpt; spin; max resid(k); each band:
 1.59E-16 1.12E-16 5.00E-17 1.58E-16 7.56E-16 2.50E-16 1.75E-16 6.18E-17
 2.02E-16 7.40E-17 2.01E-17 6.52E-17 3.93E-15 2.22E-14 2.10E-14 1.31E-14
 2.52E-14 3.21E-14 2.71E-14 6.71E-14 3.63E-14 4.20E-14
  -0.4375  0.0625  0.0625    1  6.70744E-14 kpt; spin; max resid(k); each band:
 1.59E-16 1.12E-16 5.00E-17 1.58E-16 7.56E-16 2.50E-16 1.75E-16 6.18E-17
 2.02E-16 7.40E-17 2.01E-17 6.52E-17 3.93E-15 2.22E-14 2.10E-14 1.31E-14
 2.52E-14 3.21E-14 2.71E-14 6.71E-14 3.63E-14 4.20E-14
  -0.3125  0.0625  0.0625    1  5.00812E-14 kpt; spin; max resid(k); each band:
 1.60E-16 1.35E-16 1.58E-16 5.07E-17 6.14E-16 2.45E-16 1.84E-16 1.62E-16
 2.28E-16 8.11E-17 4.64E-17 1.18E-16 2.71E-15 1.93E-14 1.67E-14 1.06E-14
 5.01E-14 2.50E-14 2.13E-14 4.70E-14 3.23E-14 3.73E-14
  -0.1875  0.0625  0.0625    1  3.74936E-14 kpt; spin; max resid(k); each band:
 1.56E-16 1.44E-16 1.60E-16 5.08E-17 4.43E-16 4.02E-16 1.45E-16 1.82E-16
 2.51E-16 2.07E-17 4.76E-17 1.75E-16 1.70E-15 1.48E-14 1.48E-14 5.69E-15
 3.70E-14 2.13E-14 1.18E-14 2.55E-14 3.30E-14 3.75E-14
  -0.0625  0.0625  0.0625    1  4.37066E-14 kpt; spin; max resid(k); each band:
 1.51E-16 1.57E-16 5.71E-17 1.41E-16 3.60E-16 4.69E-16 2.82E-16 1.11E-16
 1.76E-16 1.71E-16 5.25E-17 1.94E-16 3.00E-15 1.56E-14 1.06E-14 1.10E-14
 2.55E-14 2.69E-14 5.54E-15 4.37E-14 2.00E-14 2.10E-14
   0.0625  0.1875  0.0625    1  4.16192E-14 kpt; spin; max resid(k); each band:
 1.49E-16 1.31E-16 1.25E-16 1.29E-16 4.37E-16 4.57E-16 4.71E-16 1.40E-16
 1.21E-16 2.17E-16 1.46E-16 7.02E-17 2.94E-15 2.10E-14 1.46E-14 1.98E-14
 3.86E-14 4.16E-14 8.75E-15 4.09E-14 2.22E-14 2.13E-14
   0.1875  0.1875  0.0625    1  5.08394E-14 kpt; spin; max resid(k); each band:
 1.53E-16 1.32E-16 1.46E-16 1.07E-16 4.71E-16 1.48E-16 2.78E-16 1.72E-16
 1.29E-16 1.39E-16 8.10E-17 1.20E-16 2.13E-15 2.36E-14 2.46E-14 1.03E-14
 4.32E-14 5.08E-14 1.66E-14 2.81E-14 1.36E-14 3.87E-14
   0.3125  0.1875  0.0625    1  5.14256E-14 kpt; spin; max resid(k); each band:
 1.57E-16 1.42E-16 1.27E-16 1.09E-16 6.24E-16 1.80E-16 5.25E-16 1.22E-16
 1.54E-16 7.07E-17 7.97E-17 9.64E-17 3.16E-15 2.19E-14 3.01E-14 1.98E-14
 5.14E-14 4.67E-14 2.47E-14 4.08E-14 1.54E-14 3.81E-14
   0.4375  0.1875  0.0625    1  5.56894E-14 kpt; spin; max resid(k); each band:
 1.58E-16 1.17E-16 1.34E-16 1.07E-16 9.67E-16 2.37E-16 1.57E-16 5.38E-17
 1.57E-16 2.88E-17 8.09E-17 6.23E-17 4.96E-15 2.02E-14 3.31E-14 4.60E-14
 4.40E-14 1.35E-14 5.57E-14 3.41E-14 1.79E-14 5.08E-14
  -0.4375  0.1875  0.0625    1  5.56894E-14 kpt; spin; max resid(k); each band:
 1.58E-16 1.17E-16 1.34E-16 1.07E-16 9.67E-16 2.37E-16 1.57E-16 5.38E-17
 1.57E-16 2.88E-17 8.09E-17 6.23E-17 4.96E-15 2.02E-14 3.31E-14 4.60E-14
 4.40E-14 1.35E-14 5.57E-14 3.41E-14 1.79E-14 5.08E-14
  -0.3125  0.1875  0.0625    1  5.14257E-14 kpt; spin; max resid(k); each band:
 1.57E-16 1.42E-16 1.27E-16 1.09E-16 6.24E-16 1.80E-16 5.25E-16 1.22E-16
 1.54E-16 7.07E-17 7.97E-17 9.64E-17 3.16E-15 2.19E-14 3.01E-14 1.98E-14
 5.14E-14 4.67E-14 2.47E-14 4.08E-14 1.54E-14 3.81E-14
  -0.1875  0.1875  0.0625    1  5.08395E-14 kpt; spin; max resid(k); each band:
 1.53E-16 1.32E-16 1.46E-16 1.07E-16 4.71E-16 1.48E-16 2.78E-16 1.72E-16
 1.29E-16 1.39E-16 8.10E-17 1.20E-16 2.13E-15 2.36E-14 2.46E-14 1.03E-14
 4.32E-14 5.08E-14 1.66E-14 2.81E-14 1.36E-14 3.87E-14
  -0.0625  0.1875  0.0625    1  4.16193E-14 kpt; spin; max resid(k); each band:
 1.49E-16 1.31E-16 1.25E-16 1.29E-16 4.37E-16 4.57E-16 4.71E-16 1.40E-16
 1.21E-16 2.17E-16 1.46E-16 7.02E-17 2.94E-15 2.10E-14 1.46E-14 1.98E-14
 3.86E-14 4.16E-14 8.75E-15 4.09E-14 2.22E-14 2.13E-14
   0.0625  0.3125  0.0625    1  4.15884E-14 kpt; spin; max resid(k); each band:
 1.45E-16 1.55E-16 1.22E-16 1.24E-16 2.77E-16 2.75E-16 2.32E-16 1.69E-16
 1.29E-16 2.18E-16 1.46E-16 1.18E-16 2.68E-15 4.16E-14 2.11E-14 1.09E-14
 2.69E-14 2.93E-14 1.74E-14 3.08E-14 1.84E-14 2.09E-14
   0.1875  0.3125  0.0625    1  4.72716E-14 kpt; spin; max resid(k); each band:
 1.48E-16 1.56E-16 1.48E-16 1.07E-16 6.94E-16 3.81E-16 2.71E-16 1.77E-16
 1.06E-16 1.86E-16 1.25E-16 1.26E-16 2.25E-15 4.73E-14 2.65E-14 9.72E-15
 3.18E-14 3.53E-14 2.54E-14 2.27E-14 2.29E-14 3.60E-14
   0.3125  0.3125  0.0625    1  4.60742E-14 kpt; spin; max resid(k); each band:
 1.52E-16 1.36E-16 1.71E-16 1.09E-16 3.63E-16 4.10E-16 2.09E-16 1.13E-16
 1.21E-16 1.27E-16 1.12E-16 9.62E-17 2.91E-15 4.23E-14 1.95E-14 4.49E-14
 4.46E-14 2.30E-14 7.87E-15 2.83E-14 4.61E-14 1.50E-14
   0.4375  0.3125  0.0625    1  7.54654E-14 kpt; spin; max resid(k); each band:
 1.55E-16 1.26E-16 1.63E-16 1.12E-16 3.80E-16 3.22E-16 1.09E-16 5.57E-17
 7.40E-17 1.10E-16 8.02E-17 9.32E-17 6.33E-15 1.33E-14 3.66E-14 4.67E-14
 7.55E-14 1.35E-14 1.25E-14 3.02E-14 3.00E-14 7.58E-15
  -0.4375  0.3125  0.0625    1  7.54653E-14 kpt; spin; max resid(k); each band:
 1.55E-16 1.26E-16 1.63E-16 1.12E-16 3.80E-16 3.22E-16 1.09E-16 5.57E-17
 7.40E-17 1.10E-16 8.02E-17 9.32E-17 6.33E-15 1.33E-14 3.66E-14 4.67E-14
 7.55E-14 1.35E-14 1.25E-14 3.02E-14 3.00E-14 7.58E-15
  -0.3125  0.3125  0.0625    1  4.60742E-14 kpt; spin; max resid(k); each band:
 1.52E-16 1.36E-16 1.71E-16 1.09E-16 3.63E-16 4.10E-16 2.09E-16 1.13E-16
 1.21E-16 1.27E-16 1.12E-16 9.62E-17 2.91E-15 4.23E-14 1.95E-14 4.49E-14
 4.46E-14 2.30E-14 7.87E-15 2.83E-14 4.61E-14 1.50E-14
  -0.1875  0.3125  0.0625    1  4.72716E-14 kpt; spin; max resid(k); each band:
 1.48E-16 1.56E-16 1.48E-16 1.07E-16 6.94E-16 3.81E-16 2.71E-16 1.77E-16
 1.06E-16 1.86E-16 1.25E-16 1.26E-16 2.25E-15 4.73E-14 2.65E-14 9.72E-15
 3.18E-14 3.54E-14 2.54E-14 2.27E-14 2.29E-14 3.60E-14
  -0.0625  0.3125  0.0625    1  4.15884E-14 kpt; spin; max resid(k); each band:
 1.45E-16 1.55E-16 1.22E-16 1.24E-16 2.77E-16 2.75E-16 2.32E-16 1.69E-16
 1.29E-16 2.18E-16 1.46E-16 1.18E-16 2.68E-15 4.16E-14 2.11E-14 1.09E-14
 2.69E-14 2.93E-14 1.74E-14 3.08E-14 1.84E-14 2.09E-14
   0.0625  0.4375  0.0625    1  2.94659E-14 kpt; spin; max resid(k); each band:
 1.41E-16 1.43E-16 1.22E-16 1.18E-16 3.15E-16 1.05E-15 4.04E-16 2.27E-16
 1.20E-16 1.09E-16 2.30E-16 2.58E-16 2.87E-15 2.81E-14 2.95E-14 1.48E-14
 2.12E-14 1.79E-14 1.77E-14 2.71E-14 2.15E-14 1.92E-14
   0.1875  0.4375  0.0625    1  3.14230E-14 kpt; spin; max resid(k); each band:
 1.41E-16 1.45E-16 1.43E-16 1.10E-16 3.24E-16 6.72E-16 1.03E-15 2.09E-16
 5.04E-17 2.04E-16 1.62E-16 2.48E-16 2.25E-15 3.05E-14 3.14E-14 1.02E-14
 2.15E-14 2.40E-14 3.14E-14 1.81E-14 2.63E-14 3.13E-14
   0.3125  0.4375  0.0625    1  4.27429E-14 kpt; spin; max resid(k); each band:
 1.43E-16 1.49E-16 1.48E-16 1.10E-16 2.96E-16 4.70E-16 1.19E-15 1.35E-16
 1.43E-16 9.56E-17 2.08E-16 1.64E-16 2.16E-15 2.49E-14 1.82E-14 4.27E-14
 3.57E-14 1.06E-14 1.20E-14 1.84E-14 3.61E-14 1.61E-14
   0.4375  0.4375  0.0625    1  8.07917E-13 kpt; spin; max resid(k); each band:
 1.45E-16 1.61E-16 1.35E-16 1.12E-16 3.22E-16 7.69E-16 7.91E-16 6.25E-17
 1.01E-16 1.05E-16 1.18E-16 1.31E-16 3.94E-15 9.01E-15 5.14E-14 5.02E-14
 4.60E-14 1.10E-14 1.42E-15 2.21E-14 1.51E-14 8.08E-13
  -0.4375  0.4375  0.0625    1  8.07918E-13 kpt; spin; max resid(k); each band:
 1.45E-16 1.61E-16 1.35E-16 1.12E-16 3.22E-16 7.69E-16 7.91E-16 6.25E-17
 1.01E-16 1.05E-16 1.18E-16 1.31E-16 3.94E-15 9.01E-15 5.14E-14 5.02E-14
 4.60E-14 1.10E-14 1.42E-15 2.21E-14 1.51E-14 8.08E-13
  -0.3125  0.4375  0.0625    1  4.27459E-14 kpt; spin; max resid(k); each band:
 1.43E-16 1.49E-16 1.48E-16 1.10E-16 2.96E-16 4.70E-16 1.19E-15 1.35E-16
 1.43E-16 9.56E-17 2.08E-16 1.64E-16 2.16E-15 2.49E-14 1.82E-14 4.27E-14
 3.57E-14 1.06E-14 1.20E-14 1.84E-14 3.61E-14 1.61E-14
  -0.1875  0.4375  0.0625    1  3.14230E-14 kpt; spin; max resid(k); each band:
 1.41E-16 1.45E-16 1.43E-16 1.10E-16 3.24E-16 6.72E-16 1.03E-15 2.09E-16
 5.04E-17 2.04E-16 1.62E-16 2.48E-16 2.25E-15 3.05E-14 3.14E-14 1.02E-14
 2.15E-14 2.40E-14 3.14E-14 1.81E-14 2.63E-14 3.13E-14
  -0.0625  0.4375  0.0625    1  2.94660E-14 kpt; spin; max resid(k); each band:
 1.41E-16 1.43E-16 1.22E-16 1.18E-16 3.15E-16 1.05E-15 4.04E-16 2.27E-16
 1.20E-16 1.09E-16 2.30E-16 2.58E-16 2.87E-15 2.81E-14 2.95E-14 1.48E-14
 2.12E-14 1.79E-14 1.77E-14 2.71E-14 2.15E-14 1.92E-14
   0.0625 -0.4375  0.0625    1  3.17785E-14 kpt; spin; max resid(k); each band:
 1.42E-16 9.43E-17 1.22E-16 1.21E-16 4.02E-16 1.56E-15 3.60E-16 2.52E-16
 1.20E-16 1.82E-16 2.31E-16 3.30E-16 3.21E-15 8.38E-15 2.22E-14 1.75E-14
 1.09E-14 1.03E-14 1.42E-14 2.63E-14 2.19E-14 3.18E-14
   0.1875 -0.4375  0.0625    1  3.20615E-14 kpt; spin; max resid(k); each band:
 1.32E-16 9.68E-17 1.42E-16 1.15E-16 2.28E-16 6.38E-16 1.26E-15 2.02E-16
 4.74E-17 2.12E-16 2.59E-16 3.25E-16 2.24E-15 8.97E-15 2.23E-14 8.26E-15
 1.56E-14 1.68E-14 3.21E-14 1.38E-14 2.47E-14 2.31E-14
   0.3125 -0.4375  0.0625    1  3.41980E-14 kpt; spin; max resid(k); each band:
 1.34E-16 9.96E-17 1.46E-16 1.11E-16 2.44E-16 4.25E-16 1.59E-15 1.38E-16
 1.40E-16 7.78E-17 2.49E-16 2.58E-16 1.60E-15 8.80E-15 1.55E-14 2.44E-14
 3.41E-14 8.24E-15 1.15E-14 2.38E-14 3.42E-14 2.79E-14
   0.4375 -0.4375  0.0625    1  8.15209E-13 kpt; spin; max resid(k); each band:
 1.39E-16 1.15E-16 1.28E-16 1.09E-16 2.77E-16 9.93E-16 1.06E-15 6.19E-17
 1.02E-16 9.73E-17 1.28E-16 2.40E-16 1.83E-15 9.24E-15 2.23E-14 3.33E-14
 3.89E-14 1.09E-14 1.95E-15 2.12E-14 1.67E-14 8.15E-13
  -0.4375 -0.4375  0.0625    1  8.15209E-13 kpt; spin; max resid(k); each band:
 1.39E-16 1.15E-16 1.28E-16 1.09E-16 2.77E-16 9.93E-16 1.06E-15 6.19E-17
 1.02E-16 9.73E-17 1.28E-16 2.40E-16 1.83E-15 9.24E-15 2.23E-14 3.33E-14
 3.89E-14 1.09E-14 1.95E-15 2.12E-14 1.67E-14 8.15E-13
  -0.3125 -0.4375  0.0625    1  3.41981E-14 kpt; spin; max resid(k); each band:
 1.34E-16 9.96E-17 1.46E-16 1.11E-16 2.44E-16 4.25E-16 1.59E-15 1.38E-16
 1.40E-16 7.78E-17 2.49E-16 2.58E-16 1.60E-15 8.80E-15 1.55E-14 2.44E-14
 3.41E-14 8.24E-15 1.15E-14 2.38E-14 3.42E-14 2.79E-14
  -0.1875 -0.4375  0.0625    1  3.20620E-14 kpt; spin; max resid(k); each band:
 1.32E-16 9.68E-17 1.42E-16 1.15E-16 2.28E-16 6.38E-16 1.26E-15 2.02E-16
 4.74E-17 2.12E-16 2.59E-16 3.25E-16 2.24E-15 8.97E-15 2.23E-14 8.26E-15
 1.56E-14 1.68E-14 3.21E-14 1.38E-14 2.47E-14 2.31E-14
  -0.0625 -0.4375  0.0625    1  3.17789E-14 kpt; spin; max resid(k); each band:
 1.42E-16 9.43E-17 1.22E-16 1.21E-16 4.02E-16 1.56E-15 3.60E-16 2.52E-16
 1.20E-16 1.82E-16 2.31E-16 3.30E-16 3.21E-15 8.38E-15 2.22E-14 1.75E-14
 1.09E-14 1.03E-14 1.42E-14 2.63E-14 2.19E-14 3.18E-14
   0.0625 -0.3125  0.0625    1  2.22504E-14 kpt; spin; max resid(k); each band:
 1.42E-16 8.02E-17 1.22E-16 1.19E-16 3.50E-16 9.87E-16 4.22E-16 1.84E-16
 1.24E-16 2.19E-16 2.33E-16 2.44E-16 3.22E-15 2.95E-15 1.25E-14 1.28E-14
 2.10E-14 1.59E-14 1.22E-14 1.99E-14 2.23E-14 2.06E-14
   0.1875 -0.3125  0.0625    1  2.99498E-14 kpt; spin; max resid(k); each band:
 1.33E-16 8.09E-17 1.40E-16 1.44E-16 5.50E-16 6.38E-16 9.88E-16 1.66E-16
 1.25E-16 1.47E-16 2.77E-16 2.53E-16 1.75E-15 5.23E-15 8.87E-15 1.39E-14
 2.23E-14 1.67E-14 1.86E-14 2.59E-14 1.82E-14 2.99E-14
   0.3125 -0.3125  0.0625    1  3.34067E-14 kpt; spin; max resid(k); each band:
 1.42E-16 1.12E-16 1.10E-16 1.06E-16 2.74E-16 6.75E-16 6.65E-16 1.24E-16
 1.13E-16 9.65E-17 1.77E-16 3.06E-16 1.34E-15 1.18E-14 9.09E-15 1.50E-14
 2.41E-14 8.92E-15 5.66E-15 2.16E-14 3.34E-14 1.29E-14
   0.4375 -0.3125  0.0625    1  2.74010E-14 kpt; spin; max resid(k); each band:
 1.44E-16 1.28E-16 8.38E-17 1.06E-16 3.05E-16 1.19E-15 3.84E-16 3.88E-17
 7.51E-17 1.14E-16 9.15E-17 3.56E-16 8.55E-16 1.46E-14 6.02E-15 2.27E-14
 1.55E-14 8.28E-15 1.42E-14 1.45E-14 2.74E-14 4.63E-15
  -0.4375 -0.3125  0.0625    1  2.74010E-14 kpt; spin; max resid(k); each band:
 1.44E-16 1.28E-16 8.38E-17 1.06E-16 3.05E-16 1.19E-15 3.84E-16 3.88E-17
 7.51E-17 1.14E-16 9.15E-17 3.56E-16 8.55E-16 1.46E-14 6.02E-15 2.27E-14
 1.55E-14 8.28E-15 1.42E-14 1.45E-14 2.74E-14 4.63E-15
  -0.3125 -0.3125  0.0625    1  3.34067E-14 kpt; spin; max resid(k); each band:
 1.42E-16 1.12E-16 1.10E-16 1.06E-16 2.74E-16 6.75E-16 6.65E-16 1.24E-16
 1.13E-16 9.65E-17 1.77E-16 3.06E-16 1.34E-15 1.18E-14 9.09E-15 1.50E-14
 2.41E-14 8.92E-15 5.66E-15 2.16E-14 3.34E-14 1.29E-14
  -0.1875 -0.3125  0.0625    1  2.99499E-14 kpt; spin; max resid(k); each band:
 1.33E-16 8.09E-17 1.40E-16 1.44E-16 5.50E-16 6.38E-16 9.88E-16 1.66E-16
 1.25E-16 1.47E-16 2.77E-16 2.53E-16 1.75E-15 5.23E-15 8.87E-15 1.39E-14
 2.23E-14 1.67E-14 1.86E-14 2.59E-14 1.82E-14 2.99E-14
  -0.0625 -0.3125  0.0625    1  2.22505E-14 kpt; spin; max resid(k); each band:
 1.42E-16 8.02E-17 1.22E-16 1.19E-16 3.50E-16 9.87E-16 4.22E-16 1.84E-16
 1.24E-16 2.19E-16 2.33E-16 2.44E-16 3.22E-15 2.95E-15 1.25E-14 1.28E-14
 2.10E-14 1.59E-14 1.22E-14 1.99E-14 2.23E-14 2.06E-14
   0.0625 -0.1875  0.0625    1  2.59033E-14 kpt; spin; max resid(k); each band:
 1.44E-16 8.24E-17 1.20E-16 1.17E-16 3.28E-16 5.78E-16 4.61E-16 1.27E-16
 1.20E-16 2.10E-16 2.35E-16 1.62E-16 2.92E-15 6.61E-15 7.78E-15 1.11E-14
 1.55E-14 1.50E-14 9.57E-15 1.07E-14 2.48E-14 2.59E-14
   0.1875 -0.1875  0.0625    1  3.13709E-14 kpt; spin; max resid(k); each band:
 1.53E-16 1.05E-16 1.14E-16 1.04E-16 4.87E-16 6.15E-16 6.81E-16 1.87E-16
 1.24E-16 1.06E-16 2.09E-16 2.01E-16 1.41E-15 7.38E-15 9.86E-15 1.35E-14
 1.54E-14 1.10E-14 9.57E-15 2.20E-14 1.19E-14 3.14E-14
 outwf : prtvol=0 or 1, do not print more k-points.


 Thirteen components of 2nd-order total energy (hartree) are
 1,2,3: 0th-order hamiltonian combined with 1st-order wavefunctions
     kin0=   1.36119829E+04 eigvalue=   6.67689322E+02  local=  -8.23980340E+03
 4,5,6: 1st-order hamiltonian combined with 1st and 0th-order wfs
 loc psp =  -8.46901993E+03  Hartree=   1.12106302E+03     xc=  -2.31813660E+02
 note that "loc psp" includes a xc core correction that could be resolved
 7,8,9: eventually, occupation + non-local contributions
    edocc=   0.00000000E+00     enl0=   2.71211123E+03   enl1=  -1.08134389E+04
 1-9 gives the relaxation energy (to be shifted if some occ is /=2.0)
   erelax=  -9.64122943E+03
 10,11,12 Non-relaxation  contributions : frozen-wavefunctions and Ewald
 fr.local=   3.89999147E+03 fr.nonlo=   5.39690167E+03  Ewald=   3.45679287E+02
 13,14 Frozen wf xc core corrections (1) and (2)
 frxc 1  =   0.00000000E+00  frxc 2 =   0.00000000E+00
 Resulting in :
 2DEtotal=    0.1342993078E+01 Ha. Also 2DEtotal=    0.365447001741E+02 eV
    (2DErelax=   -9.6412294271E+03 Ha. 2DEnonrelax=    9.6425724201E+03 Ha)
    (  non-var. 2DEtotal :    1.3429912455E+00 Ha)


--------------------------------------------------------------------------------
 Perturbation wavevector (in red.coord.)   0.500000  0.500000  0.500000
 Perturbation : displacement of atom   2   along direction   1
 Found     2 symmetries that leave the perturbation invariant.
 symkpt : the number of k-points, thanks to the symmetries,
 is reduced to   288 .

--------------------------------------------------------------------------------

-inwffil : will read wavefunctions from disk file perovskite-Gamma_o_DS1_WFK
- newkpt: read input wf with ikpt,npw=   1    5020, make ikpt,npw=   1    5020
- newkpt: read input wf with ikpt,npw=   2    5028, make ikpt,npw=   2    5028
- newkpt: read input wf with ikpt,npw=   3    5035, make ikpt,npw=   3    5035
- newkpt: read input wf with ikpt,npw=   4    5023, make ikpt,npw=   4    5023
- newkpt: read input wf with ikpt,npw=   4    5023, make ikpt,npw=   5    5023
- newkpt: read input wf with ikpt,npw=   3    5035, make ikpt,npw=   6    5035
- newkpt: read input wf with ikpt,npw=   2    5028, make ikpt,npw=   7    5028
- newkpt: read input wf with ikpt,npw=   1    5020, make ikpt,npw=   8    5020
- newkpt: read input wf with ikpt,npw=   2    5028, make ikpt,npw=   9    5028
- newkpt: read input wf with ikpt,npw=   5    5030, make ikpt,npw=  10    5030
- newkpt: read input wf with ikpt,npw=   6    5036, make ikpt,npw=  11    5036
- newkpt: read input wf with ikpt,npw=   7    5026, make ikpt,npw=  12    5026
- newkpt: read input wf with ikpt,npw=   7    5026, make ikpt,npw=  13    5026
- newkpt: read input wf with ikpt,npw=   6    5036, make ikpt,npw=  14    5036
- newkpt: read input wf with ikpt,npw=   5    5030, make ikpt,npw=  15    5030
- newkpt: read input wf with ikpt,npw=   2    5028, make ikpt,npw=  16    5028
- newkpt: read input wf with ikpt,npw=   3    5035, make ikpt,npw=  17    5035
- newkpt: read input wf with ikpt,npw=   6    5036, make ikpt,npw=  18    5036
- newkpt: read input wf with ikpt,npw=   8    5030, make ikpt,npw=  19    5030
- newkpt: read input wf with ikpt,npw=   9    5028, make ikpt,npw=  20    5028
- newkpt: read input wf with ikpt,npw=   9    5028, make ikpt,npw=  21    5028
- newkpt: read input wf with ikpt,npw=   8    5030, make ikpt,npw=  22    5030
- newkpt: read input wf with ikpt,npw=   6    5036, make ikpt,npw=  23    5036
- newkpt: read input wf with ikpt,npw=   3    5035, make ikpt,npw=  24    5035
- newkpt: read input wf with ikpt,npw=   4    5023, make ikpt,npw=  25    5023
- newkpt: read input wf with ikpt,npw=   7    5026, make ikpt,npw=  26    5026
- newkpt: read input wf with ikpt,npw=   9    5028, make ikpt,npw=  27    5028
- newkpt: read input wf with ikpt,npw=  10    5035, make ikpt,npw=  28    5035
- newkpt: read input wf with ikpt,npw=  10    5035, make ikpt,npw=  29    5035
- newkpt: read input wf with ikpt,npw=   9    5028, make ikpt,npw=  30    5028
- newkpt: read input wf with ikpt,npw=   7    5026, make ikpt,npw=  31    5026
- newkpt: read input wf with ikpt,npw=   4    5023, make ikpt,npw=  32    5023
- newkpt: read input wf with ikpt,npw=   4    5023, make ikpt,npw=  33    5023
- newkpt: read input wf with ikpt,npw=   7    5026, make ikpt,npw=  34    5026
- newkpt: read input wf with ikpt,npw=   9    5028, make ikpt,npw=  35    5028
- newkpt: read input wf with ikpt,npw=  10    5035, make ikpt,npw=  36    5035
- newkpt: read input wf with ikpt,npw=  10    5035, make ikpt,npw=  37    5035
- newkpt: read input wf with ikpt,npw=   9    5028, make ikpt,npw=  38    5028
- newkpt: read input wf with ikpt,npw=   7    5026, make ikpt,npw=  39    5026
- newkpt: read input wf with ikpt,npw=   4    5023, make ikpt,npw=  40    5023
- newkpt: read input wf with ikpt,npw=   3    5035, make ikpt,npw=  41    5035
- newkpt: read input wf with ikpt,npw=   6    5036, make ikpt,npw=  42    5036
- newkpt: read input wf with ikpt,npw=   8    5030, make ikpt,npw=  43    5030
- newkpt: read input wf with ikpt,npw=   9    5028, make ikpt,npw=  44    5028
- newkpt: read input wf with ikpt,npw=   9    5028, make ikpt,npw=  45    5028
- newkpt: read input wf with ikpt,npw=   8    5030, make ikpt,npw=  46    5030
- newkpt: read input wf with ikpt,npw=   6    5036, make ikpt,npw=  47    5036
- newkpt: read input wf with ikpt,npw=   3    5035, make ikpt,npw=  48    5035
- newkpt: read input wf with ikpt,npw=   2    5028, make ikpt,npw=  49    5028
- newkpt: read input wf with ikpt,npw=   5    5030, make ikpt,npw=  50    5030
- newkpt : prtvol=0 or 1, do not print more k-points.
 
--------------------------------------------------------------------------------

-inwffil : will read wavefunctions from disk file perovskite-Gamma_o_DS1_WFK
- newkpt: read input wf with ikpt,npw=  20    4992, make ikpt,npw=   1    4992
- newkpt: read input wf with ikpt,npw=  19    5007, make ikpt,npw=   2    5007
- newkpt: read input wf with ikpt,npw=  16    5025, make ikpt,npw=   3    5025
- newkpt: read input wf with ikpt,npw=  10    5035, make ikpt,npw=   4    5035
- newkpt: read input wf with ikpt,npw=  10    5035, make ikpt,npw=   5    5035
- newkpt: read input wf with ikpt,npw=  16    5025, make ikpt,npw=   6    5025
- newkpt: read input wf with ikpt,npw=  19    5007, make ikpt,npw=   7    5007
- newkpt: read input wf with ikpt,npw=  20    4992, make ikpt,npw=   8    4992
- newkpt: read input wf with ikpt,npw=  19    5007, make ikpt,npw=   9    5007
- newkpt: read input wf with ikpt,npw=  18    5012, make ikpt,npw=  10    5012
- newkpt: read input wf with ikpt,npw=  15    5027, make ikpt,npw=  11    5027
- newkpt: read input wf with ikpt,npw=   9    5028, make ikpt,npw=  12    5028
- newkpt: read input wf with ikpt,npw=   9    5028, make ikpt,npw=  13    5028
- newkpt: read input wf with ikpt,npw=  15    5027, make ikpt,npw=  14    5027
- newkpt: read input wf with ikpt,npw=  18    5012, make ikpt,npw=  15    5012
- newkpt: read input wf with ikpt,npw=  19    5007, make ikpt,npw=  16    5007
- newkpt: read input wf with ikpt,npw=  16    5025, make ikpt,npw=  17    5025
- newkpt: read input wf with ikpt,npw=  15    5027, make ikpt,npw=  18    5027
- newkpt: read input wf with ikpt,npw=  13    5026, make ikpt,npw=  19    5026
- newkpt: read input wf with ikpt,npw=   7    5026, make ikpt,npw=  20    5026
- newkpt: read input wf with ikpt,npw=   7    5026, make ikpt,npw=  21    5026
- newkpt: read input wf with ikpt,npw=  13    5026, make ikpt,npw=  22    5026
- newkpt: read input wf with ikpt,npw=  15    5027, make ikpt,npw=  23    5027
- newkpt: read input wf with ikpt,npw=  16    5025, make ikpt,npw=  24    5025
- newkpt: read input wf with ikpt,npw=  10    5035, make ikpt,npw=  25    5035
- newkpt: read input wf with ikpt,npw=   9    5028, make ikpt,npw=  26    5028
- newkpt: read input wf with ikpt,npw=   7    5026, make ikpt,npw=  27    5026
- newkpt: read input wf with ikpt,npw=   4    5023, make ikpt,npw=  28    5023
- newkpt: read input wf with ikpt,npw=   4    5023, make ikpt,npw=  29    5023
- newkpt: read input wf with ikpt,npw=   7    5026, make ikpt,npw=  30    5026
- newkpt: read input wf with ikpt,npw=   9    5028, make ikpt,npw=  31    5028
- newkpt: read input wf with ikpt,npw=  10    5035, make ikpt,npw=  32    5035
- newkpt: read input wf with ikpt,npw=  10    5035, make ikpt,npw=  33    5035
- newkpt: read input wf with ikpt,npw=   9    5028, make ikpt,npw=  34    5028
- newkpt: read input wf with ikpt,npw=   7    5026, make ikpt,npw=  35    5026
- newkpt: read input wf with ikpt,npw=   4    5023, make ikpt,npw=  36    5023
- newkpt: read input wf with ikpt,npw=   4    5023, make ikpt,npw=  37    5023
- newkpt: read input wf with ikpt,npw=   7    5026, make ikpt,npw=  38    5026
- newkpt: read input wf with ikpt,npw=   9    5028, make ikpt,npw=  39    5028
- newkpt: read input wf with ikpt,npw=  10    5035, make ikpt,npw=  40    5035
- newkpt: read input wf with ikpt,npw=  16    5025, make ikpt,npw=  41    5025
- newkpt: read input wf with ikpt,npw=  15    5027, make ikpt,npw=  42    5027
- newkpt: read input wf with ikpt,npw=  13    5026, make ikpt,npw=  43    5026
- newkpt: read input wf with ikpt,npw=   7    5026, make ikpt,npw=  44    5026
- newkpt: read input wf with ikpt,npw=   7    5026, make ikpt,npw=  45    5026
- newkpt: read input wf with ikpt,npw=  13    5026, make ikpt,npw=  46    5026
- newkpt: read input wf with ikpt,npw=  15    5027, make ikpt,npw=  47    5027
- newkpt: read input wf with ikpt,npw=  16    5025, make ikpt,npw=  48    5025
- newkpt: read input wf with ikpt,npw=  19    5007, make ikpt,npw=  49    5007
- newkpt: read input wf with ikpt,npw=  18    5012, make ikpt,npw=  50    5012
- newkpt : prtvol=0 or 1, do not print more k-points.
 
 Initialisation of the first-order wave-functions :
  ireadwf=   0
P newkpt: treating     22 bands with npw=    4992 for ikpt=   1
P newkpt: treating     22 bands with npw=    5007 for ikpt=   2
P newkpt: treating     22 bands with npw=    5025 for ikpt=   3
P newkpt: treating     22 bands with npw=    5035 for ikpt=   4
P newkpt: treating     22 bands with npw=    5035 for ikpt=   5
P newkpt: treating     22 bands with npw=    5025 for ikpt=   6
P newkpt: treating     22 bands with npw=    5007 for ikpt=   7
P newkpt: treating     22 bands with npw=    4992 for ikpt=   8
P newkpt: treating     22 bands with npw=    5007 for ikpt=   9
P newkpt: treating     22 bands with npw=    5012 for ikpt=  10
P newkpt: treating     22 bands with npw=    5027 for ikpt=  11
P newkpt: treating     22 bands with npw=    5028 for ikpt=  12
P newkpt: treating     22 bands with npw=    5028 for ikpt=  13
P newkpt: treating     22 bands with npw=    5027 for ikpt=  14
P newkpt: treating     22 bands with npw=    5012 for ikpt=  15
P newkpt: treating     22 bands with npw=    5007 for ikpt=  16
P newkpt: treating     22 bands with npw=    5025 for ikpt=  17
P newkpt: treating     22 bands with npw=    5027 for ikpt=  18
P newkpt: treating     22 bands with npw=    5026 for ikpt=  19
P newkpt: treating     22 bands with npw=    5026 for ikpt=  20
P newkpt: treating     22 bands with npw=    5026 for ikpt=  21
P newkpt: treating     22 bands with npw=    5026 for ikpt=  22
P newkpt: treating     22 bands with npw=    5027 for ikpt=  23
P newkpt: treating     22 bands with npw=    5025 for ikpt=  24
P newkpt: treating     22 bands with npw=    5035 for ikpt=  25
P newkpt: treating     22 bands with npw=    5028 for ikpt=  26
P newkpt: treating     22 bands with npw=    5026 for ikpt=  27
P newkpt: treating     22 bands with npw=    5023 for ikpt=  28
P newkpt: treating     22 bands with npw=    5023 for ikpt=  29
P newkpt: treating     22 bands with npw=    5026 for ikpt=  30
P newkpt: treating     22 bands with npw=    5028 for ikpt=  31
P newkpt: treating     22 bands with npw=    5035 for ikpt=  32
P newkpt: treating     22 bands with npw=    5035 for ikpt=  33
P newkpt: treating     22 bands with npw=    5028 for ikpt=  34
P newkpt: treating     22 bands with npw=    5026 for ikpt=  35
P newkpt: treating     22 bands with npw=    5023 for ikpt=  36
P newkpt: treating     22 bands with npw=    5023 for ikpt=  37
P newkpt: treating     22 bands with npw=    5026 for ikpt=  38
P newkpt: treating     22 bands with npw=    5028 for ikpt=  39
P newkpt: treating     22 bands with npw=    5035 for ikpt=  40
P newkpt: treating     22 bands with npw=    5025 for ikpt=  41
P newkpt: treating     22 bands with npw=    5027 for ikpt=  42
P newkpt: treating     22 bands with npw=    5026 for ikpt=  43
P newkpt: treating     22 bands with npw=    5026 for ikpt=  44
P newkpt: treating     22 bands with npw=    5026 for ikpt=  45
P newkpt: treating     22 bands with npw=    5026 for ikpt=  46
P newkpt: treating     22 bands with npw=    5027 for ikpt=  47
P newkpt: treating     22 bands with npw=    5025 for ikpt=  48
P newkpt: treating     22 bands with npw=    5007 for ikpt=  49
P newkpt: treating     22 bands with npw=    5012 for ikpt=  50
  newkpt: prtvol=0 or 1, do not print more k-points.
 

     iter   2DEtotal(Ha)        deltaE(Ha) residm    vres2
-ETOT  1   3606.0739793913     -1.249E+03 9.496E+01 1.648E+07
 ETOT  2   885.16062179686     -2.721E+03 7.700E+01 1.637E+06
 ETOT  3   291.59378882241     -5.936E+02 5.702E+00 5.468E+05
 ETOT  4   319.70673833058      2.811E+01 6.955E+00 1.220E+06
 ETOT  5   33.362501916896     -2.863E+02 1.012E+00 9.907E+04
 ETOT  6   17.317024567654     -1.605E+01 7.220E-01 4.785E+03
 ETOT  7   16.224892971637     -1.092E+00 7.015E-02 4.069E+03
 ETOT  8   15.613784319551     -6.111E-01 1.593E-02 4.115E+03
 ETOT  9   14.955652994612     -6.581E-01 8.213E-03 9.563E+02
 ETOT 10   14.888491102933     -6.716E-02 1.319E-02 1.862E+02
 ETOT 11   14.797914951929     -9.058E-02 7.851E-04 2.459E+01
 ETOT 12   14.790658674025     -7.256E-03 4.501E-04 1.006E+01
 ETOT 13   14.789292988408     -1.366E-03 1.006E-04 5.722E+00
 ETOT 14   14.787927481550     -1.366E-03 1.128E-04 1.374E+00
 ETOT 15   14.787681549488     -2.459E-04 1.587E-05 2.775E-01
 ETOT 16   14.787651277984     -3.027E-05 1.224E-05 1.494E-01
 ETOT 17   14.787634768727     -1.651E-05 3.498E-06 5.385E-02
 ETOT 18   14.787623249857     -1.152E-05 2.760E-06 1.024E-02
 ETOT 19   14.787620500000     -2.750E-06 1.025E-06 9.138E-05
 ETOT 20   14.787619917594     -5.824E-07 6.576E-07 5.002E-05
 ETOT 21   14.787619677171     -2.404E-07 2.267E-07 1.404E-05
 ETOT 22   14.787619566112     -1.111E-07 1.600E-07 8.301E-06
 ETOT 23   14.787619515817     -5.030E-08 5.389E-08 6.033E-06
 ETOT 24   14.787619492414     -2.340E-08 3.875E-08 8.393E-06
 ETOT 25   14.787619481640     -1.077E-08 1.308E-08 1.207E-05
 ETOT 26   14.787619476098     -5.542E-09 9.395E-09 7.426E-06
 ETOT 27   14.787619472564     -3.534E-09 2.987E-09 1.773E-06
 ETOT 28   14.787619471187     -1.378E-09 2.335E-09 1.441E-06
 ETOT 29   14.787619470632     -5.548E-10 6.889E-10 5.554E-07
 ETOT 30   14.787619470208     -4.238E-10 5.605E-10 5.329E-07
 ETOT 31   14.787619469995     -2.119E-10 1.713E-10 8.636E-08
 ETOT 32   14.787619469973     -2.183E-11 1.373E-10 5.685E-08
 ETOT 33   14.787619469873     -1.000E-10 3.924E-11 1.080E-08
 ETOT 34   14.787619469897      2.365E-11 3.357E-11 2.332E-08
 ETOT 35   14.787619469877     -2.092E-11 1.058E-11 2.409E-08
 ETOT 36   14.787619469852     -2.547E-11 7.480E-12 1.221E-08
 ETOT 37   14.787619469879      2.819E-11 2.369E-12 1.375E-08
 ETOT 38   14.787619469821     -5.821E-11 1.815E-12 2.993E-09

 At SCF step   38       vres2   =  2.99E-09 < tolvrs=  1.00E-08 =>converged.
================================================================================

 ----iterations are completed or convergence reached----

 Mean square residual over all n,k,spin=   6.4666E-15; max=  1.8145E-12
   0.0625  0.0625  0.0625    1  6.41413E-15 kpt; spin; max resid(k); each band:
 5.37E-18 1.51E-16 1.20E-16 7.61E-17 5.40E-17 1.74E-17 4.20E-17 9.82E-18
 3.25E-18 4.03E-18 7.91E-18 1.04E-17 1.03E-16 7.37E-16 2.11E-15 1.41E-15
 2.54E-15 1.11E-15 1.80E-15 7.93E-16 6.41E-15 3.44E-15
   0.1875  0.0625  0.0625    1  3.32516E-15 kpt; spin; max resid(k); each band:
 5.00E-18 1.03E-16 1.69E-16 1.32E-16 7.29E-17 4.66E-17 1.60E-17 1.06E-17
 8.33E-18 2.10E-17 8.80E-18 1.60E-17 8.45E-17 2.38E-15 4.75E-16 3.33E-15
 1.01E-15 2.29E-15 8.00E-16 2.95E-15 3.82E-17 1.01E-15
   0.3125  0.0625  0.0625    1  5.33986E-15 kpt; spin; max resid(k); each band:
 4.92E-18 1.34E-16 1.65E-16 1.28E-16 7.91E-17 2.08E-16 1.86E-17 1.02E-17
 5.35E-18 2.82E-17 1.02E-17 3.55E-17 4.03E-16 5.34E-15 2.51E-16 4.73E-16
 4.93E-16 8.98E-16 3.41E-16 3.42E-16 3.44E-17 6.91E-16
   0.4375  0.0625  0.0625    1  1.18512E-15 kpt; spin; max resid(k); each band:
 4.78E-18 2.01E-16 1.50E-16 1.28E-16 4.72E-17 4.62E-16 2.33E-17 1.29E-17
 1.08E-17 9.75E-18 1.54E-17 7.17E-17 1.68E-16 1.19E-15 3.97E-16 2.95E-16
 3.46E-16 1.99E-16 2.71E-16 8.41E-17 1.78E-17 3.12E-16
  -0.4375  0.0625  0.0625    1  1.19413E-15 kpt; spin; max resid(k); each band:
 4.79E-18 2.01E-16 1.50E-16 1.29E-16 4.70E-17 4.62E-16 2.33E-17 1.29E-17
 1.07E-17 9.75E-18 1.54E-17 7.16E-17 1.68E-16 1.19E-15 3.98E-16 2.94E-16
 3.47E-16 1.99E-16 2.70E-16 8.45E-17 1.78E-17 3.11E-16
  -0.3125  0.0625  0.0625    1  5.35170E-15 kpt; spin; max resid(k); each band:
 4.92E-18 1.35E-16 1.65E-16 1.28E-16 7.94E-17 2.07E-16 1.86E-17 1.02E-17
 5.34E-18 2.82E-17 1.03E-17 3.54E-17 4.02E-16 5.35E-15 2.53E-16 4.73E-16
 4.95E-16 9.00E-16 3.38E-16 2.35E-16 3.48E-17 6.90E-16
  -0.1875  0.0625  0.0625    1  3.28406E-15 kpt; spin; max resid(k); each band:
 5.00E-18 1.03E-16 1.69E-16 1.32E-16 7.30E-17 4.64E-17 1.60E-17 1.06E-17
 8.25E-18 2.10E-17 8.79E-18 1.60E-17 8.48E-17 2.39E-15 4.77E-16 3.28E-15
 1.02E-15 2.30E-15 7.94E-16 2.96E-15 3.86E-17 1.00E-15
  -0.0625  0.0625  0.0625    1  6.42556E-15 kpt; spin; max resid(k); each band:
 5.37E-18 1.51E-16 1.20E-16 7.64E-17 5.41E-17 1.74E-17 4.19E-17 9.83E-18
 3.26E-18 3.96E-18 7.91E-18 1.03E-17 1.03E-16 7.38E-16 2.12E-15 1.41E-15
 2.54E-15 1.12E-15 1.80E-15 7.94E-16 6.43E-15 3.44E-15
   0.0625  0.1875  0.0625    1  6.06653E-15 kpt; spin; max resid(k); each band:
 4.61E-18 1.66E-16 1.38E-16 1.37E-16 2.68E-17 3.92E-17 1.85E-17 1.18E-17
 1.18E-17 6.29E-18 7.97E-18 7.50E-18 1.65E-16 1.31E-15 1.81E-15 1.19E-15
 2.25E-15 1.02E-15 3.79E-15 2.81E-15 6.07E-15 4.57E-15
   0.1875  0.1875  0.0625    1  2.92385E-15 kpt; spin; max resid(k); each band:
 5.63E-18 8.53E-17 8.20E-17 1.60E-16 2.99E-17 6.45E-17 3.56E-17 5.11E-18
 1.11E-17 8.85E-18 7.50E-18 1.35E-17 1.54E-16 1.91E-15 9.53E-16 2.92E-15
 1.65E-15 2.41E-15 2.73E-15 5.42E-16 2.63E-15 1.23E-15
   0.3125  0.1875  0.0625    1  4.91511E-15 kpt; spin; max resid(k); each band:
 5.53E-18 1.14E-16 1.02E-16 1.58E-16 2.91E-17 5.90E-17 1.03E-16 3.58E-18
 1.11E-17 1.18E-17 1.50E-17 3.19E-17 1.49E-16 4.92E-15 8.14E-16 5.78E-16
 4.64E-16 1.12E-15 5.43E-16 1.59E-16 1.01E-15 5.50E-16
   0.4375  0.1875  0.0625    1  1.37983E-15 kpt; spin; max resid(k); each band:
 4.49E-18 2.55E-16 1.17E-16 9.58E-17 6.04E-17 1.24E-16 3.44E-16 1.71E-17
 3.13E-18 1.61E-17 4.76E-18 6.71E-17 2.72E-16 1.38E-15 2.32E-16 1.23E-16
 1.61E-16 4.18E-16 1.71E-16 1.03E-16 1.05E-15 2.66E-16
  -0.4375  0.1875  0.0625    1  1.38883E-15 kpt; spin; max resid(k); each band:
 4.50E-18 2.54E-16 1.18E-16 9.68E-17 6.02E-17 1.24E-16 3.44E-16 1.71E-17
 3.13E-18 1.61E-17 4.79E-18 6.71E-17 2.72E-16 1.39E-15 2.33E-16 1.23E-16
 1.61E-16 4.19E-16 1.70E-16 1.03E-16 1.04E-15 2.68E-16
  -0.3125  0.1875  0.0625    1  4.93102E-15 kpt; spin; max resid(k); each band:
 5.53E-18 1.15E-16 1.03E-16 1.58E-16 2.91E-17 5.89E-17 1.02E-16 3.58E-18
 1.11E-17 1.18E-17 1.50E-17 3.18E-17 1.50E-16 4.93E-15 8.17E-16 5.77E-16
 4.66E-16 1.13E-15 5.46E-16 1.59E-16 1.01E-15 5.53E-16
  -0.1875  0.1875  0.0625    1  2.91534E-15 kpt; spin; max resid(k); each band:
 5.63E-18 8.54E-17 8.21E-17 1.60E-16 2.99E-17 6.43E-17 3.55E-17 5.13E-18
 1.11E-17 8.81E-18 7.49E-18 1.34E-17 1.55E-16 1.91E-15 9.56E-16 2.92E-15
 1.66E-15 2.42E-15 2.74E-15 5.43E-16 2.63E-15 1.23E-15
  -0.0625  0.1875  0.0625    1  6.06754E-15 kpt; spin; max resid(k); each band:
 4.61E-18 1.66E-16 1.38E-16 1.37E-16 2.68E-17 3.92E-17 1.84E-17 1.18E-17
 1.18E-17 6.35E-18 7.95E-18 7.50E-18 1.65E-16 1.31E-15 1.81E-15 1.18E-15
 2.25E-15 1.02E-15 3.79E-15 2.81E-15 6.07E-15 4.57E-15
   0.0625  0.3125  0.0625    1  7.29358E-15 kpt; spin; max resid(k); each band:
 4.63E-18 9.03E-17 1.28E-16 1.27E-16 2.72E-17 2.83E-17 2.26E-17 1.43E-17
 1.36E-17 4.38E-18 4.45E-18 1.07E-17 3.40E-16 2.53E-16 1.43E-15 1.25E-15
 3.81E-15 1.60E-15 7.29E-15 4.88E-15 6.74E-15 5.11E-15
   0.1875  0.3125  0.0625    1  5.81573E-15 kpt; spin; max resid(k); each band:
 4.56E-18 1.71E-16 1.11E-16 1.39E-16 3.23E-17 3.29E-17 4.34E-17 1.22E-17
 1.17E-17 8.68E-18 9.25E-18 8.62E-18 2.99E-16 3.04E-16 2.46E-15 3.26E-15
 3.10E-15 2.20E-15 2.87E-15 2.31E-15 5.82E-15 2.98E-15
   0.3125  0.3125  0.0625    1  3.17925E-15 kpt; spin; max resid(k); each band:
 5.17E-18 1.98E-16 1.88E-16 1.46E-16 2.70E-17 7.50E-17 1.23E-16 9.00E-18
 1.15E-17 1.19E-17 2.01E-17 9.68E-18 2.62E-16 1.89E-15 3.18E-15 6.29E-16
 1.12E-15 1.01E-15 1.07E-15 3.90E-16 6.52E-16 2.52E-15
   0.4375  0.3125  0.0625    1  1.50137E-15 kpt; spin; max resid(k); each band:
 4.28E-18 2.87E-16 1.93E-16 1.16E-16 4.14E-17 9.63E-17 4.24E-16 8.85E-18
 1.42E-17 9.75E-18 4.71E-17 6.75E-18 1.77E-16 1.50E-15 8.47E-17 2.91E-16
 2.07E-16 5.39E-16 2.92E-16 1.30E-16 1.39E-15 8.61E-16
  -0.4375  0.3125  0.0625    1  1.50906E-15 kpt; spin; max resid(k); each band:
 4.30E-18 2.87E-16 1.93E-16 1.17E-16 4.09E-17 9.61E-17 4.24E-16 8.86E-18
 1.42E-17 9.70E-18 4.71E-17 6.72E-18 1.78E-16 1.51E-15 4.95E-17 2.93E-16
 2.16E-16 5.43E-16 2.92E-16 1.29E-16 1.39E-15 8.64E-16
  -0.3125  0.3125  0.0625    1  3.17633E-15 kpt; spin; max resid(k); each band:
 5.18E-18 1.98E-16 1.88E-16 1.46E-16 2.70E-17 7.48E-17 1.23E-16 9.00E-18
 1.15E-17 1.18E-17 2.01E-17 9.67E-18 2.60E-16 1.90E-15 3.18E-15 6.35E-16
 1.13E-15 1.01E-15 1.07E-15 3.92E-16 6.55E-16 2.51E-15
  -0.1875  0.3125  0.0625    1  5.51935E-15 kpt; spin; max resid(k); each band:
 4.56E-18 1.71E-16 1.10E-16 1.39E-16 3.23E-17 3.28E-17 4.34E-17 1.22E-17
 1.17E-17 8.63E-18 9.18E-18 8.63E-18 2.84E-16 3.08E-16 2.47E-15 3.26E-15
 3.12E-15 2.21E-15 2.87E-15 2.31E-15 5.52E-15 2.98E-15
  -0.0625  0.3125  0.0625    1  7.29267E-15 kpt; spin; max resid(k); each band:
 4.63E-18 9.06E-17 1.28E-16 1.27E-16 2.72E-17 2.84E-17 2.26E-17 1.43E-17
 1.36E-17 4.40E-18 4.45E-18 1.07E-17 3.41E-16 2.54E-16 1.44E-15 1.25E-15
 3.82E-15 1.60E-15 7.29E-15 4.88E-15 6.76E-15 5.12E-15
   0.0625  0.4375  0.0625    1  1.08054E-14 kpt; spin; max resid(k); each band:
 4.72E-18 1.47E-16 1.14E-16 1.14E-16 5.40E-17 5.13E-17 2.79E-17 1.13E-17
 1.44E-17 1.31E-17 8.18E-18 1.34E-17 8.28E-16 1.07E-16 1.07E-15 8.55E-16
 2.76E-15 5.14E-15 9.79E-15 5.36E-15 7.71E-15 1.08E-14
   0.1875  0.4375  0.0625    1  1.34444E-14 kpt; spin; max resid(k); each band:
 4.64E-18 9.92E-17 8.11E-17 1.11E-16 3.30E-17 5.50E-17 2.99E-17 9.02E-18
 1.45E-17 2.87E-18 8.19E-18 1.05E-17 7.79E-16 1.12E-16 1.39E-15 6.61E-15
 1.82E-15 7.32E-16 3.02E-15 3.31E-15 6.43E-15 1.34E-14
   0.3125  0.4375  0.0625    1  2.00330E-14 kpt; spin; max resid(k); each band:
 5.37E-18 1.91E-16 1.67E-16 1.37E-16 6.68E-17 1.83E-16 5.25E-17 9.04E-18
 9.26E-18 1.76E-17 1.03E-17 8.36E-18 4.34E-16 2.54E-16 6.10E-15 7.09E-16
 1.82E-15 7.49E-16 7.78E-16 1.53E-15 9.78E-16 2.00E-14
   0.4375  0.4375  0.0625    1  1.81389E-12 kpt; spin; max resid(k); each band:
 5.21E-18 2.62E-16 2.58E-16 8.83E-17 3.67E-17 2.73E-16 2.75E-16 5.06E-18
 1.59E-17 1.95E-17 1.39E-17 1.59E-17 3.02E-16 6.00E-16 5.88E-16 3.78E-16
 5.51E-16 6.60E-16 7.47E-16 2.70E-16 6.05E-16 1.81E-12
  -0.4375  0.4375  0.0625    1  1.81398E-12 kpt; spin; max resid(k); each band:
 5.20E-18 2.62E-16 2.58E-16 8.84E-17 3.56E-17 2.73E-16 2.75E-16 5.05E-18
 1.60E-17 1.94E-17 1.38E-17 1.58E-17 3.01E-16 6.01E-16 5.96E-16 3.80E-16
 3.53E-16 6.61E-16 7.30E-16 2.62E-16 6.06E-16 1.81E-12
  -0.3125  0.4375  0.0625    1  2.00657E-14 kpt; spin; max resid(k); each band:
 5.38E-18 1.91E-16 1.66E-16 1.37E-16 6.65E-17 1.82E-16 5.26E-17 9.03E-18
 9.28E-18 1.76E-17 1.02E-17 8.33E-18 4.37E-16 2.53E-16 6.11E-15 7.12E-16
 1.83E-15 7.49E-16 7.80E-16 1.54E-15 9.54E-16 2.01E-14
  -0.1875  0.4375  0.0625    1  1.34557E-14 kpt; spin; max resid(k); each band:
 4.64E-18 9.96E-17 8.16E-17 1.11E-16 3.30E-17 5.46E-17 2.99E-17 9.03E-18
 1.45E-17 2.86E-18 8.15E-18 1.05E-17 7.82E-16 1.12E-16 1.40E-15 6.62E-15
 1.82E-15 7.29E-16 3.02E-15 3.31E-15 6.42E-15 1.35E-14
  -0.0625  0.4375  0.0625    1  1.07809E-14 kpt; spin; max resid(k); each band:
 4.71E-18 1.47E-16 1.14E-16 1.14E-16 5.39E-17 5.13E-17 2.78E-17 1.13E-17
 1.44E-17 1.32E-17 8.16E-18 1.34E-17 8.29E-16 1.07E-16 1.06E-15 8.55E-16
 2.77E-15 5.15E-15 9.78E-15 5.37E-15 7.71E-15 1.08E-14
   0.0625 -0.4375  0.0625    1  9.72897E-15 kpt; spin; max resid(k); each band:
 4.74E-18 1.47E-16 1.14E-16 1.14E-16 5.43E-17 4.41E-17 2.79E-17 1.15E-17
 1.44E-17 1.31E-17 8.17E-18 1.34E-17 8.21E-16 1.07E-16 1.06E-15 8.52E-16
 2.77E-15 5.15E-15 9.54E-15 5.36E-15 7.71E-15 9.73E-15
   0.1875 -0.4375  0.0625    1  1.34146E-14 kpt; spin; max resid(k); each band:
 4.66E-18 9.78E-17 8.11E-17 1.11E-16 3.30E-17 5.55E-17 2.80E-17 9.08E-18
 1.45E-17 2.86E-18 8.37E-18 1.06E-17 7.30E-16 1.12E-16 1.40E-15 6.60E-15
 1.82E-15 6.82E-16 2.95E-15 3.30E-15 6.27E-15 1.34E-14
   0.3125 -0.4375  0.0625    1  2.01148E-14 kpt; spin; max resid(k); each band:
 5.32E-18 1.91E-16 1.67E-16 1.37E-16 6.69E-17 1.82E-16 5.19E-17 9.06E-18
 9.29E-18 1.76E-17 1.03E-17 8.36E-18 2.19E-16 2.53E-16 6.20E-15 7.08E-16
 1.82E-15 7.46E-16 7.83E-16 1.54E-15 6.00E-16 2.01E-14
   0.4375 -0.4375  0.0625    1  1.81345E-12 kpt; spin; max resid(k); each band:
 5.21E-18 2.62E-16 2.57E-16 8.79E-17 3.62E-17 2.73E-16 2.75E-16 5.08E-18
 1.60E-17 1.94E-17 1.31E-17 1.59E-17 2.73E-16 5.99E-16 5.89E-16 3.79E-16
 4.64E-16 6.63E-16 7.15E-16 2.45E-16 6.10E-16 1.81E-12
  -0.4375 -0.4375  0.0625    1  1.81337E-12 kpt; spin; max resid(k); each band:
 5.20E-18 2.62E-16 2.58E-16 8.87E-17 3.56E-17 2.73E-16 2.74E-16 5.09E-18
 1.59E-17 1.94E-17 1.32E-17 1.58E-17 2.73E-16 6.01E-16 5.96E-16 3.81E-16
 3.93E-16 6.60E-16 7.27E-16 2.44E-16 6.09E-16 1.81E-12
  -0.3125 -0.4375  0.0625    1  2.00933E-14 kpt; spin; max resid(k); each band:
 5.35E-18 1.91E-16 1.67E-16 1.37E-16 6.66E-17 1.82E-16 5.16E-17 9.09E-18
 9.26E-18 1.76E-17 1.03E-17 8.33E-18 2.20E-16 2.53E-16 6.22E-15 7.11E-16
 1.83E-15 7.46E-16 7.84E-16 1.54E-15 5.99E-16 2.01E-14
  -0.1875 -0.4375  0.0625    1  1.34158E-14 kpt; spin; max resid(k); each band:
 4.65E-18 9.82E-17 8.15E-17 1.11E-16 3.30E-17 5.53E-17 2.79E-17 9.09E-18
 1.45E-17 2.86E-18 8.34E-18 1.06E-17 7.32E-16 1.12E-16 1.41E-15 6.61E-15
 1.82E-15 6.85E-16 2.95E-15 3.30E-15 6.26E-15 1.34E-14
  -0.0625 -0.4375  0.0625    1  9.73152E-15 kpt; spin; max resid(k); each band:
 4.74E-18 1.47E-16 1.14E-16 1.14E-16 5.43E-17 4.41E-17 2.78E-17 1.15E-17
 1.44E-17 1.31E-17 8.19E-18 1.34E-17 8.22E-16 1.07E-16 1.06E-15 8.51E-16
 2.77E-15 5.15E-15 9.54E-15 5.37E-15 7.72E-15 9.73E-15
   0.0625 -0.3125  0.0625    1  7.29319E-15 kpt; spin; max resid(k); each band:
 4.68E-18 8.90E-17 1.28E-16 1.27E-16 2.71E-17 1.59E-17 2.26E-17 1.44E-17
 1.36E-17 4.39E-18 4.43E-18 1.07E-17 3.66E-16 2.55E-16 1.43E-15 1.25E-15
 3.82E-15 1.60E-15 7.29E-15 4.88E-15 6.88E-15 4.01E-15
   0.1875 -0.3125  0.0625    1  5.75766E-15 kpt; spin; max resid(k); each band:
 4.60E-18 1.71E-16 1.11E-16 1.39E-16 3.22E-17 3.37E-17 4.34E-17 1.22E-17
 1.17E-17 8.64E-18 9.45E-18 6.42E-18 3.15E-16 3.05E-16 2.47E-15 3.25E-15
 3.11E-15 2.00E-15 2.88E-15 2.35E-15 5.76E-15 3.04E-15
   0.3125 -0.3125  0.0625    1  3.19165E-15 kpt; spin; max resid(k); each band:
 5.06E-18 1.98E-16 1.88E-16 1.46E-16 2.71E-17 7.49E-17 1.23E-16 9.03E-18
 1.15E-17 1.18E-17 2.01E-17 9.70E-18 1.68E-16 1.89E-15 3.19E-15 6.31E-16
 1.12E-15 1.00E-15 1.07E-15 3.86E-16 6.49E-16 2.50E-15
   0.4375 -0.3125  0.0625    1  1.50085E-15 kpt; spin; max resid(k); each band:
 4.27E-18 2.87E-16 1.93E-16 1.18E-16 4.20E-17 9.62E-17 4.21E-16 8.87E-18
 1.43E-17 9.71E-18 4.72E-17 6.74E-18 1.63E-16 1.50E-15 8.00E-17 2.91E-16
 2.07E-16 5.30E-16 2.92E-16 1.30E-16 1.38E-15 8.59E-16
  -0.4375 -0.3125  0.0625    1  1.51073E-15 kpt; spin; max resid(k); each band:
 4.28E-18 2.87E-16 1.93E-16 1.16E-16 4.16E-17 9.64E-17 4.20E-16 8.87E-18
 1.43E-17 9.74E-18 4.72E-17 6.70E-18 1.63E-16 1.51E-15 9.87E-17 2.92E-16
 2.01E-16 5.18E-16 2.93E-16 1.31E-16 1.38E-15 8.56E-16
  -0.3125 -0.3125  0.0625    1  3.20194E-15 kpt; spin; max resid(k); each band:
 5.10E-18 1.98E-16 1.88E-16 1.46E-16 2.71E-17 7.49E-17 1.22E-16 9.06E-18
 1.15E-17 1.18E-17 2.01E-17 9.67E-18 1.68E-16 1.90E-15 3.20E-15 6.35E-16
 1.13E-15 1.00E-15 1.08E-15 3.88E-16 6.48E-16 2.51E-15
  -0.1875 -0.3125  0.0625    1  5.88957E-15 kpt; spin; max resid(k); each band:
 4.59E-18 1.71E-16 1.11E-16 1.39E-16 3.22E-17 3.37E-17 4.32E-17 1.22E-17
 1.17E-17 8.66E-18 9.39E-18 6.43E-18 3.16E-16 3.06E-16 2.48E-15 3.26E-15
 3.12E-15 2.00E-15 2.87E-15 2.36E-15 5.89E-15 3.04E-15
  -0.0625 -0.3125  0.0625    1  7.28861E-15 kpt; spin; max resid(k); each band:
 4.68E-18 8.93E-17 1.28E-16 1.27E-16 2.70E-17 1.58E-17 2.26E-17 1.44E-17
 1.36E-17 4.37E-18 4.44E-18 1.07E-17 3.66E-16 2.55E-16 1.43E-15 1.25E-15
 3.83E-15 1.60E-15 7.29E-15 4.88E-15 6.92E-15 5.03E-15
   0.0625 -0.1875  0.0625    1  6.04651E-15 kpt; spin; max resid(k); each band:
 4.59E-18 1.66E-16 1.38E-16 1.37E-16 2.70E-17 3.90E-17 1.85E-17 1.18E-17
 1.18E-17 6.36E-18 8.10E-18 7.51E-18 1.77E-16 1.31E-15 1.81E-15 1.18E-15
 2.27E-15 1.00E-15 3.80E-15 2.81E-15 6.05E-15 4.53E-15
   0.1875 -0.1875  0.0625    1  2.88740E-15 kpt; spin; max resid(k); each band:
 5.53E-18 8.52E-17 8.21E-17 1.60E-16 2.97E-17 2.65E-17 3.65E-17 5.11E-18
 1.12E-17 8.82E-18 7.54E-18 1.35E-17 1.55E-16 1.93E-15 9.39E-16 2.89E-15
 1.65E-15 2.42E-15 2.73E-15 5.41E-16 2.62E-15 1.22E-15
 outwf : prtvol=0 or 1, do not print more k-points.


 Thirteen components of 2nd-order total energy (hartree) are
 1,2,3: 0th-order hamiltonian combined with 1st-order wavefunctions
     kin0=   7.37672981E+03 eigvalue=   8.35049923E+02  local=  -6.78756198E+03
 4,5,6: 1st-order hamiltonian combined with 1st and 0th-order wfs
 loc psp =  -7.92758543E+03  Hartree=   1.50447530E+03     xc=  -3.21278857E+02
 note that "loc psp" includes a xc core correction that could be resolved
 7,8,9: eventually, occupation + non-local contributions
    edocc=   0.00000000E+00     enl0=   2.23310056E+03   enl1=  -1.75344409E+03
 1-9 gives the relaxation energy (to be shifted if some occ is /=2.0)
   erelax=  -4.84051477E+03
 10,11,12 Non-relaxation  contributions : frozen-wavefunctions and Ewald
 fr.local=   3.67458805E+03 fr.nonlo=   8.84417807E+02  Ewald=   2.96296531E+02
 13,14 Frozen wf xc core corrections (1) and (2)
 frxc 1  =   0.00000000E+00  frxc 2 =   0.00000000E+00
 Resulting in :
 2DEtotal=    0.1478761947E+02 Ha. Also 2DEtotal=    0.402391589769E+03 eV
    (2DErelax=   -4.8405147710E+03 Ha. 2DEnonrelax=    4.8553023904E+03 Ha)
    (  non-var. 2DEtotal :    1.4787627348E+01 Ha)


--------------------------------------------------------------------------------
 Perturbation wavevector (in red.coord.)   0.500000  0.500000  0.500000
 Perturbation : displacement of atom   3   along direction   1
 Found     2 symmetries that leave the perturbation invariant.
 symkpt : the number of k-points, thanks to the symmetries,
 is reduced to   288 .

[...]
  
   3    2   1    1         0.0000000000        -0.0000000907
   3    2   2    1         0.0000000000         0.0000000000
   3    2   3    1         0.0000000000         0.0000000000
   3    2   1    2         0.0000000001         0.0000000000
   3    2   2    2         0.0000000000         0.0000000000
   3    2   3    2         0.2654034528         0.0000000000
   3    2   1    3         0.0000000000        -0.0000000162
   3    2   2    3         0.0000000000         0.0000000000
   3    2   3    3         0.0000000000         0.0000000000
   3    2   1    4         0.0000000000         0.0000000000
   3    2   2    4         0.0000000000         0.0000000000
   3    2   3    4         0.0000000000         0.0000000000
   3    2   1    5         0.0000000000         0.0000000000
   3    2   2    5         0.0000000000         0.0000000000
   3    2   3    5         0.0000000000         0.0000000000
  
   1    3   1    1         0.0000000653         0.0000000000
   1    3   2    1         0.0000000000         0.0000000000
   1    3   3    1         0.0000000000         0.0000000000
   1    3   1    2         0.0000000000         0.0000000000
   1    3   2    2         0.0000000000         0.0000000162
   1    3   3    2         0.0000000000         0.0000000162
   1    3   1    3         0.1875340508         0.0000000000
   1    3   2    3         0.0000000000         0.0000000000
   1    3   3    3         0.0000000000         0.0000000000
   1    3   1    4         0.0000000000         0.0000000000
   1    3   2    4         0.0863930279         0.0000000000
   1    3   3    4         0.0000000021         0.0000000000
   1    3   1    5         0.0000000000         0.0000000000
   1    3   2    5         0.0000000021         0.0000000000
   1    3   3    5         0.0863930279         0.0000000000
  
   2    3   1    1         0.0000000000         0.0000000000
   2    3   2    1         0.0000000000         0.0000000000
   2    3   3    1         0.0204481366         0.0000000000
   2    3   1    2         0.0000000000         0.0000000000
   2    3   2    2         0.0000000000         0.0000000000
   2    3   3    2         0.0000000000         0.0000000000
   2    3   1    3         0.0000000000         0.0000000000
   2    3   2    3         0.0368354328         0.0000000000
   2    3   3    3         0.0000000000         0.0000000000
   2    3   1    4         0.0413236308         0.0000000000
   2    3   2    4         0.0000000000         0.0000000000
   2    3   3    4         0.0000000000         0.0000000000
   2    3   1    5         0.0000000000         0.0000000000
   2    3   2    5         0.0000000000         0.0000000000
   2    3   3    5         0.0000000000         0.0000000000
  
   3    3   1    1         0.0000000000         0.0000000000
   3    3   2    1         0.0204483949         0.0000000000
   3    3   3    1         0.0000000000         0.0000000000
   3    3   1    2         0.0000000000         0.0000000000
   3    3   2    2         0.0000000000         0.0000000000
   3    3   3    2         0.0000000000         0.0000000000
   3    3   1    3         0.0000000000         0.0000000000
   3    3   2    3         0.0000000000         0.0000000000
   3    3   3    3         0.0368354328         0.0000000000
   3    3   1    4         0.0000000000         0.0000000000
   3    3   2    4         0.0000000000         0.0000000000
   3    3   3    4         0.0000000000         0.0000000000
   3    3   1    5         0.0413236308         0.0000000000
   3    3   2    5         0.0000000000         0.0000000000
   3    3   3    5         0.0000000000         0.0000000000
  
   1    4   1    1         0.0000000000         0.0000000000
   1    4   2    1         0.0000000000         0.0000000000
   1    4   3    1         0.0204481366         0.0000000000
   1    4   1    2         0.0000000000         0.0000000000
   1    4   2    2         0.0000000000         0.0000000000
   1    4   3    2         0.0000000000         0.0000000000
   1    4   1    3         0.0000000000         0.0000000000
   1    4   2    3         0.0413236308         0.0000000000
   1    4   3    3         0.0000000000         0.0000000000
   1    4   1    4         0.0368354328         0.0000000000
   1    4   2    4         0.0000000000         0.0000000000
   1    4   3    4         0.0000000000         0.0000000000
   1    4   1    5         0.0000000000         0.0000000000
   1    4   2    5         0.0000000000         0.0000000000
   1    4   3    5         0.0000000000         0.0000000000
  
   2    4   1    1         0.0000000631         0.0000000000
   2    4   2    1         0.0000000000         0.0000000000
   2    4   3    1         0.0000000000         0.0000000000
   2    4   1    2         0.0000000000         0.0000000000
   2    4   2    2         0.0000000000         0.0000000000
   2    4   3    2         0.0000000000         0.0000000000
   2    4   1    3         0.0863930279         0.0000000000
   2    4   2    3         0.0000000000         0.0000000000
   2    4   3    3         0.0000000000         0.0000000000
   2    4   1    4         0.0000000000         0.0000000000
   2    4   2    4         0.1875340508         0.0000000000
   2    4   3    4         0.0000000000         0.0000000000
   2    4   1    5         0.0000000000         0.0000000000
   2    4   2    5         0.0000000000         0.0000000000
   2    4   3    5         0.0863930279         0.0000000000
  
   3    4   1    1         0.0204483949         0.0000000000
   3    4   2    1         0.0000000000         0.0000000000
   3    4   3    1         0.0000000000         0.0000000000
   3    4   1    2         0.0000000000         0.0000000000
   3    4   2    2         0.0000000000         0.0000000000
   3    4   3    2         0.0000000000         0.0000000000
   3    4   1    3         0.0000000021         0.0000000000
   3    4   2    3         0.0000000000         0.0000000000
   3    4   3    3         0.0000000000         0.0000000000
   3    4   1    4         0.0000000000         0.0000000000
   3    4   2    4         0.0000000000         0.0000000000
   3    4   3    4         0.0368354328         0.0000000000
   3    4   1    5         0.0000000000         0.0000000000
   3    4   2    5         0.0413236308         0.0000000000
   3    4   3    5         0.0000000000         0.0000000000
  
   1    5   1    1         0.0000000000         0.0000000000
   1    5   2    1         0.0204483949         0.0000000000
   1    5   3    1         0.0000000000         0.0000000000
   1    5   1    2         0.0000000000         0.0000000000
   1    5   2    2         0.0000000000         0.0000000000
   1    5   3    2         0.0000000000         0.0000000000
   1    5   1    3         0.0000000000         0.0000000000
   1    5   2    3         0.0000000000         0.0000000000
   1    5   3    3         0.0413236308         0.0000000000
   1    5   1    4         0.0000000000         0.0000000000
   1    5   2    4         0.0000000000         0.0000000000
   1    5   3    4         0.0000000000         0.0000000000
   1    5   1    5         0.0368354328         0.0000000000
   1    5   2    5         0.0000000000         0.0000000000
   1    5   3    5         0.0000000000         0.0000000000
  
   2    5   1    1         0.0204483949         0.0000000000
   2    5   2    1         0.0000000000         0.0000000000
   2    5   3    1         0.0000000000         0.0000000000
   2    5   1    2         0.0000000000         0.0000000000
   2    5   2    2         0.0000000000         0.0000000000
   2    5   3    2         0.0000000000         0.0000000000
   2    5   1    3         0.0000000021         0.0000000000
   2    5   2    3         0.0000000000         0.0000000000
   2    5   3    3         0.0000000000         0.0000000000
   2    5   1    4         0.0000000000         0.0000000000
   2    5   2    4         0.0000000000         0.0000000000
   2    5   3    4         0.0413236308         0.0000000000
   2    5   1    5         0.0000000000         0.0000000000
   2    5   2    5         0.0368354328         0.0000000000
   2    5   3    5         0.0000000000         0.0000000000
  
   3    5   1    1         0.0000000631         0.0000000000
   3    5   2    1         0.0000000000         0.0000000000
   3    5   3    1         0.0000000000         0.0000000000
   3    5   1    2         0.0000000000         0.0000000000
   3    5   2    2         0.0000000000         0.0000000000
   3    5   3    2         0.0000000000         0.0000000000
   3    5   1    3         0.0863930279         0.0000000000
   3    5   2    3         0.0000000000         0.0000000000
   3    5   3    3         0.0000000000         0.0000000000
   3    5   1    4         0.0000000000         0.0000000000
   3    5   2    4         0.0863930279         0.0000000000
   3    5   3    4         0.0000000000         0.0000000000
   3    5   1    5         0.0000000000         0.0000000000
   3    5   2    5         0.0000000000         0.0000000000
   3    5   3    5         0.1875340508         0.0000000000
 
  Phonon wavevector (reduced coordinates) :  0.50000  0.50000  0.50000
 Phonon energies in Hartree :
  -3.922872E-04 -3.922872E-04 -3.922872E-04  1.873819E-04  1.873819E-04
   1.873838E-04  1.645778E-03  1.645778E-03  1.645778E-03  1.743798E-03
   1.743798E-03  1.743798E-03  1.862223E-03  1.862223E-03  3.514895E-03
 Phonon frequencies in cm-1    :
- -8.609708E+01 -8.609708E+01 -8.609708E+01  4.112557E+01  4.112557E+01
-  4.112599E+01  3.612065E+02  3.612065E+02  3.612065E+02  3.827194E+02
-  3.827194E+02  3.827194E+02  4.087108E+02  4.087108E+02  7.714303E+02

== END DATASET(S) ==============================================================
================================================================================
  
 -outvars: echo values of variables after computation  --------
     acell    7.4644182249E+00  7.4644182249E+00  7.4644182249E+00 Bohr
       amu    2.07200000E+02  4.78800000E+01  1.59994000E+01
    diemac    9.00000000E+00
      ecut    4.00000000E+01 Hartree
    etotal1   2.0523525841E+00
     fcart1   0.0000000000E+00  0.0000000000E+00  0.0000000000E+00
              0.0000000000E+00  0.0000000000E+00  0.0000000000E+00
              0.0000000000E+00  0.0000000000E+00  0.0000000000E+00
              0.0000000000E+00  0.0000000000E+00  0.0000000000E+00
              0.0000000000E+00  0.0000000000E+00  0.0000000000E+00
    irdwfk         1
      iscf         5
       ixc         3
    jdtset      1
       kpt    6.25000000E-02  6.25000000E-02  6.25000000E-02
              1.87500000E-01  6.25000000E-02  6.25000000E-02
              3.12500000E-01  6.25000000E-02  6.25000000E-02
              4.37500000E-01  6.25000000E-02  6.25000000E-02
             -4.37500000E-01  6.25000000E-02  6.25000000E-02
             -3.12500000E-01  6.25000000E-02  6.25000000E-02
             -1.87500000E-01  6.25000000E-02  6.25000000E-02
             -6.25000000E-02  6.25000000E-02  6.25000000E-02
              6.25000000E-02  1.87500000E-01  6.25000000E-02
              1.87500000E-01  1.87500000E-01  6.25000000E-02
              3.12500000E-01  1.87500000E-01  6.25000000E-02
              4.37500000E-01  1.87500000E-01  6.25000000E-02
             -4.37500000E-01  1.87500000E-01  6.25000000E-02
             -3.12500000E-01  1.87500000E-01  6.25000000E-02
             -1.87500000E-01  1.87500000E-01  6.25000000E-02
             -6.25000000E-02  1.87500000E-01  6.25000000E-02
              6.25000000E-02  3.12500000E-01  6.25000000E-02
              1.87500000E-01  3.12500000E-01  6.25000000E-02
              3.12500000E-01  3.12500000E-01  6.25000000E-02
              4.37500000E-01  3.12500000E-01  6.25000000E-02
             -4.37500000E-01  3.12500000E-01  6.25000000E-02
             -3.12500000E-01  3.12500000E-01  6.25000000E-02
             -1.87500000E-01  3.12500000E-01  6.25000000E-02
             -6.25000000E-02  3.12500000E-01  6.25000000E-02
              6.25000000E-02  4.37500000E-01  6.25000000E-02
              1.87500000E-01  4.37500000E-01  6.25000000E-02
              3.12500000E-01  4.37500000E-01  6.25000000E-02
              4.37500000E-01  4.37500000E-01  6.25000000E-02
             -4.37500000E-01  4.37500000E-01  6.25000000E-02
             -3.12500000E-01  4.37500000E-01  6.25000000E-02
             -1.87500000E-01  4.37500000E-01  6.25000000E-02
             -6.25000000E-02  4.37500000E-01  6.25000000E-02
              6.25000000E-02 -4.37500000E-01  6.25000000E-02
              1.87500000E-01 -4.37500000E-01  6.25000000E-02
              3.12500000E-01 -4.37500000E-01  6.25000000E-02
              4.37500000E-01 -4.37500000E-01  6.25000000E-02
             -4.37500000E-01 -4.37500000E-01  6.25000000E-02
             -3.12500000E-01 -4.37500000E-01  6.25000000E-02
             -1.87500000E-01 -4.37500000E-01  6.25000000E-02
             -6.25000000E-02 -4.37500000E-01  6.25000000E-02
              6.25000000E-02 -3.12500000E-01  6.25000000E-02
              1.87500000E-01 -3.12500000E-01  6.25000000E-02
              3.12500000E-01 -3.12500000E-01  6.25000000E-02
              4.37500000E-01 -3.12500000E-01  6.25000000E-02
             -4.37500000E-01 -3.12500000E-01  6.25000000E-02
             -3.12500000E-01 -3.12500000E-01  6.25000000E-02
             -1.87500000E-01 -3.12500000E-01  6.25000000E-02
             -6.25000000E-02 -3.12500000E-01  6.25000000E-02
              6.25000000E-02 -1.87500000E-01  6.25000000E-02
              1.87500000E-01 -1.87500000E-01  6.25000000E-02
                       outvar1 : prtvol=0, do not print more k-points.
   kptrlen    5.97153458E+01
    kptopt         3
  kptrlatt    8  0  0   0  8  0   0  0  8
P    mkmem       512
P   mkqmem       512
P   mk1mem       512
     natom         5
     nband        22
    ndtset         1
     ngfft        45      45      45
      nkpt       512
      nqpt         1
     nstep        70
      nsym        48
    ntypat         3
       occ    2.000000  2.000000  2.000000  2.000000  2.000000  2.000000
              2.000000  2.000000  2.000000  2.000000  2.000000  2.000000
              2.000000  2.000000  2.000000  2.000000  2.000000  2.000000
              2.000000  2.000000  2.000000  2.000000
 optdriver         1
       qpt    5.00000000E-01  5.00000000E-01  5.00000000E-01
   rfatpol         1       5
     rfdir         1       1       1
    rfphon         1
    shiftk    5.00000000E-01  5.00000000E-01  5.00000000E-01
   spgroup       221
    strten1   0.0000000000E+00  0.0000000000E+00  0.0000000000E+00
              0.0000000000E+00  0.0000000000E+00  0.0000000000E+00
    symrel    1  0  0   0  1  0   0  0  1      -1  0  0   0 -1  0   0  0 -1
             -1  0  0   0  1  0   0  0 -1       1  0  0   0 -1  0   0  0  1
             -1  0  0   0 -1  0   0  0  1       1  0  0   0  1  0   0  0 -1
              1  0  0   0 -1  0   0  0 -1      -1  0  0   0  1  0   0  0  1
              0  1  0   1  0  0   0  0  1       0 -1  0  -1  0  0   0  0 -1
              0 -1  0   1  0  0   0  0 -1       0  1  0  -1  0  0   0  0  1
              0 -1  0  -1  0  0   0  0  1       0  1  0   1  0  0   0  0 -1
              0  1  0  -1  0  0   0  0 -1       0 -1  0   1  0  0   0  0  1
              0  0  1   1  0  0   0  1  0       0  0 -1  -1  0  0   0 -1  0
              0  0 -1   1  0  0   0 -1  0       0  0  1  -1  0  0   0  1  0
              0  0 -1  -1  0  0   0  1  0       0  0  1   1  0  0   0 -1  0
              0  0  1  -1  0  0   0 -1  0       0  0 -1   1  0  0   0  1  0
              1  0  0   0  0  1   0  1  0      -1  0  0   0  0 -1   0 -1  0
             -1  0  0   0  0  1   0 -1  0       1  0  0   0  0 -1   0  1  0
             -1  0  0   0  0 -1   0  1  0       1  0  0   0  0  1   0 -1  0
              1  0  0   0  0 -1   0 -1  0      -1  0  0   0  0  1   0  1  0
              0  1  0   0  0  1   1  0  0       0 -1  0   0  0 -1  -1  0  0
              0 -1  0   0  0  1  -1  0  0       0  1  0   0  0 -1   1  0  0
              0 -1  0   0  0 -1   1  0  0       0  1  0   0  0  1  -1  0  0
              0  1  0   0  0 -1  -1  0  0       0 -1  0   0  0  1   1  0  0
              0  0  1   0  1  0   1  0  0       0  0 -1   0 -1  0  -1  0  0
              0  0 -1   0  1  0  -1  0  0       0  0  1   0 -1  0   1  0  0
              0  0 -1   0 -1  0   1  0  0       0  0  1   0  1  0  -1  0  0
              0  0  1   0 -1  0  -1  0  0       0  0 -1   0  1  0   1  0  0
    tolvrs    1.00000000E-08
     typat    1  2  3  3  3
       wtk      0.00195    0.00195    0.00195    0.00195    0.00195    0.00195
                0.00195    0.00195    0.00195    0.00195    0.00195    0.00195
                0.00195    0.00195    0.00195    0.00195    0.00195    0.00195
                0.00195    0.00195    0.00195    0.00195    0.00195    0.00195
                0.00195    0.00195    0.00195    0.00195    0.00195    0.00195
                0.00195    0.00195    0.00195    0.00195    0.00195    0.00195
                0.00195    0.00195    0.00195    0.00195    0.00195    0.00195
                0.00195    0.00195    0.00195    0.00195    0.00195    0.00195
                0.00195    0.00195
                outvar1 : prtvol=0, do not print more k-points.
    xangst    0.0000000000E+00  0.0000000000E+00  0.0000000000E+00
              1.9750000000E+00  1.9750000000E+00  1.9750000000E+00
              0.0000000000E+00  1.9750000000E+00  1.9750000000E+00
              1.9750000000E+00  0.0000000000E+00  1.9750000000E+00
              1.9750000000E+00  1.9750000000E+00  0.0000000000E+00
     xcart    0.0000000000E+00  0.0000000000E+00  0.0000000000E+00
              3.7322091124E+00  3.7322091124E+00  3.7322091124E+00
              0.0000000000E+00  3.7322091124E+00  3.7322091124E+00
              3.7322091124E+00  0.0000000000E+00  3.7322091124E+00
              3.7322091124E+00  3.7322091124E+00  0.0000000000E+00
      xred    0.0000000000E+00  0.0000000000E+00  0.0000000000E+00
              5.0000000000E-01  5.0000000000E-01  5.0000000000E-01
              0.0000000000E+00  5.0000000000E-01  5.0000000000E-01
              5.0000000000E-01  0.0000000000E+00  5.0000000000E-01
              5.0000000000E-01  5.0000000000E-01  0.0000000000E+00
     znucl     82.00000   22.00000    8.00000

================================================================================

- Total cpu        time (s,m,h):      52672.2      877.87     14.631
- Total wall clock time (s,m,h):      52672.2      877.87     14.631

- For major independent code sections, cpu and wall times (sec),
- as well as % of the total time and number of calls 

- routine                 cpu     %       wall     %      number of calls 
-                                                          (-1=no count)
- fourwf(pot)        28738.559  54.6  28739.378  54.6        5610797
- nonlop(apply)       6340.628  12.0   6342.961  12.0        4665325
- fourwf(G->r)        5290.172  10.0   5290.831  10.0        1890944
- projbd              5201.196   9.9   5203.417   9.9       10276122
- vtowfk3(contrib)    2670.856   5.1   2670.051   5.1             -1
- cgwf3-O(npw)        1432.368   2.7   1429.807   2.7             -1
- nonlop(forces)      1018.791   1.9   1018.584   1.9        1399552
- vtorho3-kpt loop     913.924   1.7    914.013   1.7            129
- status               654.214   1.2    654.188   1.2         559987
- getghc-other         486.904   0.9    484.290   0.9             -1
- 60   others          502.277   1.0    502.167   1.0

- subtotal           53249.889 101.1  53249.687 101.1

================================================================================

 Calculation completed.
.Delivered   18 WARNINGs and   0 COMMENTs to log file.
+Overall time at end (sec) : cpu=      52672.2  wall=      52672.2
