
.Version 5.7.3  of ABINIT 
.(MPI version, prepared for a powerpc_aix5.3.0.0_genericunknown computer) 

.Copyright (C) 1998-2009 ABINIT group . 
 ABINIT comes with ABSOLUTELY NO WARRANTY.
 It is free software, and you are welcome to redistribute it
 under certain conditions (GNU General Public License,
 see ~abinit/COPYING or http://www.gnu.org/copyleft/gpl.txt).

 ABINIT is a project of the Universite Catholique de Louvain,
 Corning Inc. and other collaborators, see ~abinit/doc/developers/contributors.txt .
 Please read ~abinit/doc/users/acknowledgments.html for suggested
 acknowledgments of the ABINIT effort.
 For more information, see http://www.abinit.org .

.Starting date : Sun  2 Aug 2009.
  
- input  file    -> perovskite-tetragonal.in
- output file    -> perovskite-tetragonal.out
- root for input  files -> perovskite-tetragonal_i
- root for output files -> perovskite-tetragonal_o


 Symmetries : space group P4 m m (# 99); Bravais tP (primitive tetrag.)
================================================================================
 Values of the parameters that define the memory need of the present run
   intxc =         0  ionmov =         2    iscf =         7 xclevel =         2
  lmnmax =         4   lnmax =         4   mband =        21  mffmem =         1
P  mgfft =        72   mkmem =         3 mpssoang=         4     mpw =     17085
  mqgrid =      3001   natom =         5    nfft =    294912    nkpt =        40
  nloalg =         4  nspden =         1 nspinor =         1  nsppol =         1
    nsym =         8  n1xccc =         0  ntypat =         3  occopt =         1
================================================================================
P This job should need less than                     108.194 Mbytes of memory.
  Rough estimation (10% accuracy) of disk space for files :
  WF disk file :    218.987 Mbytes ; DEN or POT disk file :      2.252 Mbytes.
================================================================================

 -outvars: echo values of preprocessed input variables --------
     acell    7.4386120087E+00  7.4386120087E+00  7.4662411534E+00 Bohr
       amu    1.37327000E+02  4.78800000E+01  1.59994000E+01
    diemac    1.20000000E+01
   dilatmx    1.20000000E+00
      ecut    6.30000000E+01 Hartree
    ecutsm    3.00000000E+00 Hartree
    ionmov         2
       ixc        23
       kpt    6.25000000E-02  6.25000000E-02  6.25000000E-02
              1.87500000E-01  6.25000000E-02  6.25000000E-02
              3.12500000E-01  6.25000000E-02  6.25000000E-02
              4.37500000E-01  6.25000000E-02  6.25000000E-02
              1.87500000E-01  1.87500000E-01  6.25000000E-02
              3.12500000E-01  1.87500000E-01  6.25000000E-02
              4.37500000E-01  1.87500000E-01  6.25000000E-02
              3.12500000E-01  3.12500000E-01  6.25000000E-02
              4.37500000E-01  3.12500000E-01  6.25000000E-02
              4.37500000E-01  4.37500000E-01  6.25000000E-02
              6.25000000E-02  6.25000000E-02  1.87500000E-01
              1.87500000E-01  6.25000000E-02  1.87500000E-01
              3.12500000E-01  6.25000000E-02  1.87500000E-01
              4.37500000E-01  6.25000000E-02  1.87500000E-01
              1.87500000E-01  1.87500000E-01  1.87500000E-01
              3.12500000E-01  1.87500000E-01  1.87500000E-01
              4.37500000E-01  1.87500000E-01  1.87500000E-01
              3.12500000E-01  3.12500000E-01  1.87500000E-01
              4.37500000E-01  3.12500000E-01  1.87500000E-01
              4.37500000E-01  4.37500000E-01  1.87500000E-01
              6.25000000E-02  6.25000000E-02  3.12500000E-01
              1.87500000E-01  6.25000000E-02  3.12500000E-01
              3.12500000E-01  6.25000000E-02  3.12500000E-01
              4.37500000E-01  6.25000000E-02  3.12500000E-01
              1.87500000E-01  1.87500000E-01  3.12500000E-01
              3.12500000E-01  1.87500000E-01  3.12500000E-01
              4.37500000E-01  1.87500000E-01  3.12500000E-01
              3.12500000E-01  3.12500000E-01  3.12500000E-01
              4.37500000E-01  3.12500000E-01  3.12500000E-01
              4.37500000E-01  4.37500000E-01  3.12500000E-01
              6.25000000E-02  6.25000000E-02  4.37500000E-01
              1.87500000E-01  6.25000000E-02  4.37500000E-01
              3.12500000E-01  6.25000000E-02  4.37500000E-01
              4.37500000E-01  6.25000000E-02  4.37500000E-01
              1.87500000E-01  1.87500000E-01  4.37500000E-01
              3.12500000E-01  1.87500000E-01  4.37500000E-01
              4.37500000E-01  1.87500000E-01  4.37500000E-01
              3.12500000E-01  3.12500000E-01  4.37500000E-01
              4.37500000E-01  3.12500000E-01  4.37500000E-01
              4.37500000E-01  4.37500000E-01  4.37500000E-01
   kptrlen    5.95088961E+01
    kptopt         1
  kptrlatt    8  0  0   0  8  0   0  0  8
P    mkmem         3
     natom         5
     nband        21
     ngfft        64      64      72
      nkpt        40
     nstep        45
      nsym         8
     ntime        20
    ntypat         3
       occ    2.000000  2.000000  2.000000  2.000000  2.000000  2.000000
              2.000000  2.000000  2.000000  2.000000  2.000000  2.000000
              2.000000  2.000000  2.000000  2.000000  2.000000  2.000000
              2.000000  2.000000  0.000000
   optcell         2
    prtden         0
     prtwf         0
    shiftk    5.00000000E-01  5.00000000E-01  5.00000000E-01
   spgroup        99
    symrel    1  0  0   0  1  0   0  0  1       1  0  0   0 -1  0   0  0  1
             -1  0  0   0 -1  0   0  0  1      -1  0  0   0  1  0   0  0  1
              0  1  0   1  0  0   0  0  1       0  1  0  -1  0  0   0  0  1
              0 -1  0  -1  0  0   0  0  1       0 -1  0   1  0  0   0  0  1
    toldff    5.00000000E-07
    tolmxf    1.00000000E-06
     typat    1  2  3  3  3
       wtk      0.01563    0.03125    0.03125    0.03125    0.01563    0.03125
                0.03125    0.01563    0.03125    0.01563    0.01563    0.03125
                0.03125    0.03125    0.01563    0.03125    0.03125    0.01563
                0.03125    0.01563    0.01563    0.03125    0.03125    0.03125
                0.01563    0.03125    0.03125    0.01563    0.03125    0.01563
                0.01563    0.03125    0.03125    0.03125    0.01563    0.03125
                0.03125    0.01563    0.03125    0.01563
    xangst    0.0000000000E+00  0.0000000000E+00  1.5268659347E-02
              1.9681719693E+00  1.9681719693E+00  2.0204053997E+00
              0.0000000000E+00  1.9681719693E+00  1.9594420553E+00
              1.9681719693E+00  0.0000000000E+00  1.9594420553E+00
              1.9681719693E+00  1.9681719693E+00 -2.8111191385E-02
     xcart    0.0000000000E+00  0.0000000000E+00  2.8853584583E-02
              3.7193060043E+00  3.7193060043E+00  3.8180128828E+00
              0.0000000000E+00  3.7193060043E+00  3.7028088578E+00
              3.7193060043E+00  0.0000000000E+00  3.7028088578E+00
              3.7193060043E+00  3.7193060043E+00 -5.3122452986E-02
      xred    0.0000000000E+00  0.0000000000E+00  3.8645395976E-03
              5.0000000000E-01  5.0000000000E-01  5.1137015325E-01
              0.0000000000E+00  5.0000000000E-01  4.9594016343E-01
              5.0000000000E-01  0.0000000000E+00  4.9594016343E-01
              5.0000000000E-01  5.0000000000E-01 -7.1150197127E-03
     znucl     56.00000   22.00000    8.00000

================================================================================

 chkinp: Checking input parameters for consistency.

================================================================================
== DATASET  1 ==================================================================

 Real(R)+Recip(G) space primitive vectors, cartesian coordinates (Bohr,Bohr^-1):
 R(1)=  7.4386120  0.0000000  0.0000000  G(1)=  0.1344337  0.0000000  0.0000000
 R(2)=  0.0000000  7.4386120  0.0000000  G(2)=  0.0000000  0.1344337  0.0000000
 R(3)=  0.0000000  0.0000000  7.4662412  G(3)=  0.0000000  0.0000000  0.1339362
 Unit cell volume ucvol=  4.1312914E+02 bohr^3
 Angles (23,13,12)=  9.00000000E+01  9.00000000E+01  9.00000000E+01 degrees

 getcut: wavevector=  0.0000  0.0000  0.0000  ngfft=  64  64  72
         ecut(hartree)=     90.720   => boxcut(ratio)=   2.00665

--- Pseudopotential description ------------------------------------------------
- pspini: atom type   1  psp file is ba.wcgga.fhi
- pspatm: opening atomic psp file    ba.wcgga.fhi
 OPIUM generated Ba potential
  56.00000  10.00000     90731                znucl, zion, pspdat
    6   23    3    3      1179   0.00000      pspcod,pspxc,lmax,lloc,mmax,r2well
    0.00000000000000    0.00000000000000    0.00000000000000   rchrg,fchrg,qchrg
  1.013085          amesh (Hamman grid)
 pspatm: epsatm=   82.20741810
         --- l  ekb(1:nproj) -->
             0   -1.025000
             1   -0.812020
             2   -5.512288
 pspatm: atomic psp has been read  and splines computed

- pspini: atom type   2  psp file is ti.wcgga.fhi
- pspatm: opening atomic psp file    ti.wcgga.fhi
 OPIUM generated Ti potential
  22.00000  12.00000     90731                znucl, zion, pspdat
    6   23    3    3      1156   0.00000      pspcod,pspxc,lmax,lloc,mmax,r2well
    0.00000000000000    0.00000000000000    0.00000000000000   rchrg,fchrg,qchrg
  1.013085          amesh (Hamman grid)
 pspatm: epsatm=   51.36980524
         --- l  ekb(1:nproj) -->
             0   -5.227900
             1   -6.911342
             2   -8.639772
 pspatm: atomic psp has been read  and splines computed

- pspini: atom type   3  psp file is o.wcgga.fhi
- pspatm: opening atomic psp file    o.wcgga.fhi
 OPIUM generated O potential
   8.00000   6.00000     90731                znucl, zion, pspdat
    6   23    1    0      1130   0.00000      pspcod,pspxc,lmax,lloc,mmax,r2well
    0.00000000000000    0.00000000000000    0.00000000000000   rchrg,fchrg,qchrg
  1.013085          amesh (Hamman grid)
 pspatm: epsatm=    7.84256607
         --- l  ekb(1:nproj) -->
             1   -3.641985
 pspatm: atomic psp has been read  and splines computed

   6.28419686E+03                                ecore*ucvol(ha*bohr**3)
--------------------------------------------------------------------------------

P newkpt: treating     21 bands with npw=   17036 for ikpt=   1 by node    0
P newkpt: treating     21 bands with npw=   17041 for ikpt=   2 by node    0
P newkpt: treating     21 bands with npw=   17047 for ikpt=   3 by node    0
P newkpt: treating     21 bands with npw=   17030 for ikpt=   4 by node    1
P newkpt: treating     21 bands with npw=   17046 for ikpt=   5 by node    1
P newkpt: treating     21 bands with npw=   17031 for ikpt=   6 by node    1
P newkpt: treating     21 bands with npw=   17027 for ikpt=   7 by node    2
P newkpt: treating     21 bands with npw=   17043 for ikpt=   8 by node    2
P newkpt: treating     21 bands with npw=   17050 for ikpt=   9 by node    2
P newkpt: treating     21 bands with npw=   17048 for ikpt=  10 by node    3
P newkpt: treating     21 bands with npw=   17068 for ikpt=  11 by node    3
P newkpt: treating     21 bands with npw=   17033 for ikpt=  12 by node    3
P newkpt: treating     21 bands with npw=   17035 for ikpt=  13 by node    4
P newkpt: treating     21 bands with npw=   17023 for ikpt=  14 by node    4
P newkpt: treating     21 bands with npw=   17051 for ikpt=  15 by node    4
P newkpt: treating     21 bands with npw=   17047 for ikpt=  16 by node    5
P newkpt: treating     21 bands with npw=   17060 for ikpt=  17 by node    5
P newkpt: treating     21 bands with npw=   17066 for ikpt=  18 by node    5
P newkpt: treating     21 bands with npw=   17069 for ikpt=  19 by node    6
P newkpt: treating     21 bands with npw=   17060 for ikpt=  20 by node    6
P newkpt: treating     21 bands with npw=   17042 for ikpt=  21 by node    6
P newkpt: treating     21 bands with npw=   17044 for ikpt=  22 by node    7
P newkpt: treating     21 bands with npw=   17042 for ikpt=  23 by node    7
P newkpt: treating     21 bands with npw=   17051 for ikpt=  24 by node    7
P newkpt: treating     21 bands with npw=   17053 for ikpt=  25 by node    8
P newkpt: treating     21 bands with npw=   17046 for ikpt=  26 by node    8
P newkpt: treating     21 bands with npw=   17078 for ikpt=  27 by node    8
P newkpt: treating     21 bands with npw=   17066 for ikpt=  28 by node    9
P newkpt: treating     21 bands with npw=   17073 for ikpt=  29 by node    9
P newkpt: treating     21 bands with npw=   17073 for ikpt=  30 by node    9
P newkpt: treating     21 bands with npw=   17030 for ikpt=  31 by node   10
P newkpt: treating     21 bands with npw=   17035 for ikpt=  32 by node   10
P newkpt: treating     21 bands with npw=   17034 for ikpt=  33 by node   10
P newkpt: treating     21 bands with npw=   17050 for ikpt=  34 by node   11
P newkpt: treating     21 bands with npw=   17042 for ikpt=  35 by node   11
P newkpt: treating     21 bands with npw=   17072 for ikpt=  36 by node   11
P newkpt: treating     21 bands with npw=   17073 for ikpt=  37 by node   12
P newkpt: treating     21 bands with npw=   17077 for ikpt=  38 by node   12
P newkpt: treating     21 bands with npw=   17085 for ikpt=  39 by node   12
P newkpt: treating     21 bands with npw=   17081 for ikpt=  40 by node   13

 setup2: Arith. and geom. avg. npw (full set) are   17050.531   17050.523

================================================================================

 BROYDEN STEP NUMBER   0  ------------------------------------------------------

     iter   Etot(hartree)      deltaE(h)  residm     vres2    diffor    maxfor
 ETOT  1  -129.58415411380    -1.296E+02 1.450E+00 6.777E+03 1.406E-01 1.406E-01
 ETOT  2  -130.74219464489    -1.158E+00 4.157E-01 7.596E+03 1.574E-01 5.828E-02
 ETOT  3  -131.30527566663    -5.631E-01 1.635E-01 1.314E+03 4.226E-02 5.654E-02
 ETOT  4  -131.32758039008    -2.230E-02 6.004E-02 4.561E+02 6.366E-02 7.119E-03
 ETOT  5  -131.35906717341    -3.149E-02 1.924E-02 6.947E+00 9.827E-03 8.540E-03
 ETOT  6  -131.36068082756    -1.614E-03 1.217E-02 1.207E+01 1.423E-02 5.838E-03
 ETOT  7  -131.36158202062    -9.012E-04 7.258E-03 2.221E+00 8.294E-03 2.457E-03
 ETOT  8  -131.36185071087    -2.687E-04 7.740E-03 9.590E-02 2.722E-03 3.613E-04
 ETOT  9  -131.36190090761    -5.020E-05 4.074E-03 5.024E-02 5.365E-04 5.272E-04
 ETOT 10  -131.36192299937    -2.209E-05 4.546E-03 3.781E-03 1.315E-04 4.996E-04
 ETOT 11  -131.36192933394    -6.335E-06 3.859E-03 1.034E-02 1.094E-04 5.191E-04
 ETOT 12  -131.36193319475    -3.861E-06 3.238E-03 1.172E-03 6.113E-05 5.021E-04
 ETOT 13  -131.36193458966    -1.395E-06 2.599E-03 7.410E-04 7.094E-05 4.542E-04
 ETOT 14  -131.36193526162    -6.720E-07 2.215E-03 7.859E-04 6.936E-06 4.527E-04
 ETOT 15  -131.36193562242    -3.608E-07 2.113E-03 3.406E-04 6.321E-05 4.322E-04
 ETOT 16  -131.36193576787    -1.454E-07 1.548E-03 4.400E-04 3.725E-05 4.540E-04
 ETOT 17  -131.36193576999    -2.119E-09 1.714E-03 1.251E-03 2.204E-05 4.499E-04
 ETOT 18  -131.36193574112     2.886E-08 1.360E-03 2.122E-03 1.902E-05 4.552E-04
 ETOT 19  -131.36193553866     2.025E-07 1.479E-03 4.962E-03 1.607E-05 4.638E-04
 ETOT 20  -131.36193591326    -3.746E-07 1.124E-03 4.691E-04 2.236E-05 4.603E-04
 ETOT 21  -131.36193594577    -3.251E-08 1.218E-03 1.750E-04 1.442E-05 4.518E-04
 ETOT 22  -131.36193595529    -9.526E-09 8.152E-04 4.220E-05 1.050E-05 4.567E-04
 ETOT 23  -131.36193595880    -3.504E-09 9.584E-04 2.206E-05 4.398E-06 4.591E-04
 ETOT 24  -131.36193596079    -1.990E-09 6.102E-04 2.945E-06 3.706E-06 4.597E-04
 ETOT 25  -131.36193596134    -5.503E-10 7.297E-04 1.765E-06 2.195E-06 4.584E-04
 ETOT 26  -131.36193596172    -3.848E-10 4.456E-04 5.034E-08 7.804E-07 4.580E-04
 ETOT 27  -131.36193596187    -1.418E-10 5.406E-04 4.582E-08 7.470E-07 4.576E-04
 ETOT 28  -131.36193596195    -8.220E-11 3.680E-04 1.844E-08 1.117E-07 4.575E-04
 ETOT 29  -131.36193596199    -4.292E-11 3.929E-04 1.635E-08 1.294E-07 4.576E-04

 At SCF step   29, forces are converged :
  for the second time, max diff in force=  1.294E-07 < toldff=  5.000E-07

 Cartesian components of stress tensor (hartree/bohr^3)
  sigma(1 1)= -2.32674220E-04  sigma(3 2)=  0.00000000E+00
  sigma(2 2)= -2.32674220E-04  sigma(3 1)=  0.00000000E+00
  sigma(3 3)= -2.31959183E-04  sigma(2 1)=  0.00000000E+00

 Unit cell characteristics :
  acell=  7.4386120087E+00  7.4386120087E+00  7.4662411534E+00
  rprim=  1.0000000000E+00  0.0000000000E+00  0.0000000000E+00
          0.0000000000E+00  1.0000000000E+00  0.0000000000E+00
          0.0000000000E+00  0.0000000000E+00  1.0000000000E+00
  ucvol=  4.1312913810E+02 Bohr^3
  lengths=  7.4386120087E+00  7.4386120087E+00  7.4662411534E+00 Bohr
  angles (23,13,12)=  90.00000000  90.00000000  90.00000000 degrees
 Cartesian coordinates (bohr)
  0.00000000000000E+00  0.00000000000000E+00  2.88535845825450E-02
  3.71930600435000E+00  3.71930600435000E+00  3.81801288281562E+00
  0.00000000000000E+00  3.71930600435000E+00  3.70280885782499E+00
  3.71930600435000E+00  0.00000000000000E+00  3.70280885782499E+00
  3.71930600435000E+00  3.71930600435000E+00 -5.31224529862130E-02
 Cartesian forces (hart/bohr); max,rms= 4.57554E-04 1.35667E-04 (free atoms)
  0.00000000000000E+00  0.00000000000000E+00 -1.95040336214746E-04
  0.00000000000000E+00  0.00000000000000E+00  4.57554443980398E-04
  0.00000000000000E+00  0.00000000000000E+00 -1.18372210110938E-04
  0.00000000000000E+00  0.00000000000000E+00 -1.18372210110938E-04
  0.00000000000000E+00  0.00000000000000E+00 -2.57696875437747E-05

 At the end of Broyden step  0, total energy= -1.31361935961991E+02 Ha.


 BROYDEN STEP NUMBER   1  ------------------------------------------------------

     iter   Etot(hartree)      deltaE(h)  residm     vres2    diffor    maxfor
 ETOT  1  -131.34351028204    -1.313E+02 6.109E-04 6.084E+02 2.811E-02 2.809E-02
 ETOT  2  -131.35582649856    -1.232E-02 7.769E-04 1.287E+02 5.091E-02 2.282E-02
 ETOT  3  -131.35851001937    -2.684E-03 1.411E-03 5.364E+01 3.093E-02 8.107E-03
 ETOT  4  -131.36303710585    -4.527E-03 3.135E-04 3.592E+00 9.477E-03 1.883E-03
 ETOT  5  -131.36328551556    -2.484E-04 9.264E-04 6.817E-01 1.055E-03 1.616E-03
 ETOT  6  -131.36329386451    -8.349E-06 1.902E-04 5.831E-01 1.251E-03 2.867E-03
 ETOT  7  -131.36332734588    -3.348E-05 6.368E-04 1.206E-01 5.573E-04 2.310E-03
 ETOT  8  -131.36333631424    -8.968E-06 1.941E-04 1.774E-02 6.257E-04 1.764E-03
 ETOT  9  -131.36333759486    -1.281E-06 5.646E-04 2.681E-03 1.048E-04 1.789E-03
 ETOT 10  -131.36333773528    -1.404E-07 2.183E-04 1.257E-04 2.785E-05 1.812E-03
 ETOT 11  -131.36333773926    -3.984E-09 4.388E-04 1.217E-04 1.080E-05 1.801E-03
 ETOT 12  -131.36333775202    -1.275E-08 2.388E-04 4.341E-06 7.957E-06 1.793E-03
 ETOT 13  -131.36333775185     1.667E-10 5.616E-04 1.761E-05 8.822E-06 1.784E-03
 ETOT 14  -131.36333775315    -1.301E-09 1.545E-04 9.699E-07 5.313E-06 1.790E-03
 ETOT 15  -131.36333775324    -8.450E-11 5.840E-04 9.105E-07 1.733E-06 1.790E-03
 ETOT 16  -131.36333775327    -3.109E-11 1.599E-04 5.026E-07 4.475E-07 1.790E-03
 ETOT 17  -131.36333775331    -3.953E-11 6.005E-04 1.441E-08 1.047E-06 1.789E-03
 ETOT 18  -131.36333775332    -8.384E-12 1.639E-04 3.689E-09 2.727E-07 1.790E-03
 ETOT 19  -131.36333775332    -9.663E-13 6.099E-04 5.539E-10 1.186E-07 1.790E-03

 At SCF step   19, forces are converged :
  for the second time, max diff in force=  1.186E-07 < toldff=  5.000E-07

 Cartesian components of stress tensor (hartree/bohr^3)
  sigma(1 1)= -9.22958304E-05  sigma(3 2)=  0.00000000E+00
  sigma(2 2)= -9.22958304E-05  sigma(3 1)=  0.00000000E+00
  sigma(3 3)= -9.20619896E-05  sigma(2 1)=  0.00000000E+00

 Unit cell characteristics :
  acell=  7.4905352060E+00  7.4905352060E+00  7.5181970494E+00
  rprim=  1.0000000000E+00  0.0000000000E+00  0.0000000000E+00
          0.0000000000E+00  1.0000000000E+00  0.0000000000E+00
          0.0000000000E+00  0.0000000000E+00  1.0000000000E+00
  ucvol=  4.2183188474E+02 Bohr^3
  lengths=  7.4905352060E+00  7.4905352060E+00  7.5181970494E+00 Bohr
  angles (23,13,12)=  90.00000000  90.00000000  90.00000000 degrees
 Cartesian coordinates (bohr)
  0.00000000000000E+00  0.00000000000000E+00  2.88579726219170E-02
  3.74526760301282E+00  3.74526760301282E+00  3.84504231578850E+00
  0.00000000000000E+00  3.74526760301282E+00  3.72845667745280E+00
  3.74526760301282E+00  0.00000000000000E+00  3.72845667745280E+00
  3.74526760301282E+00  3.74526760301282E+00 -5.35180692236040E-02
 Cartesian forces (hart/bohr); max,rms= 1.78954E-03 6.43953E-04 (free atoms)
  0.00000000000000E+00  0.00000000000000E+00 -1.37523584496616E-05
  0.00000000000000E+00  0.00000000000000E+00  1.73645056475523E-03
  0.00000000000000E+00  0.00000000000000E+00  3.34201557285399E-05
  0.00000000000000E+00  0.00000000000000E+00  3.34201557285399E-05
  0.00000000000000E+00  0.00000000000000E+00 -1.78953851776265E-03

 At the end of Broyden step  1, total energy= -1.31363337753316E+02 Ha.


 BROYDEN STEP NUMBER   2  ------------------------------------------------------

     iter   Etot(hartree)      deltaE(h)  residm     vres2    diffor    maxfor
 ETOT  1  -131.35415331026    -1.314E+02 6.443E-04 2.854E+02 4.634E-02 4.807E-02
 ETOT  2  -131.35939630944    -5.243E-03 7.601E-04 7.018E+01 5.808E-02 1.399E-02
 ETOT  3  -131.36077919486    -1.383E-03 9.343E-04 3.032E+01 1.435E-02 4.726E-03
 ETOT  4  -131.36346992558    -2.691E-03 4.022E-04 2.086E+00 7.399E-03 4.403E-03
 ETOT  5  -131.36361292392    -1.430E-04 4.796E-04 3.415E-01 2.521E-03 3.746E-03
 ETOT  6  -131.36361650167    -3.578E-06 2.663E-04 3.227E-01 1.383E-03 3.461E-03
 ETOT  7  -131.36363479244    -1.829E-05 3.812E-04 6.925E-02 4.741E-04 2.987E-03
 ETOT  8  -131.36364040424    -5.612E-06 2.352E-04 3.317E-03 5.637E-04 2.865E-03
 ETOT  9  -131.36364056500    -1.608E-07 3.683E-04 3.079E-03 2.356E-04 2.708E-03
 ETOT 10  -131.36364069660    -1.316E-07 2.151E-04 1.364E-04 9.063E-05 2.799E-03
 ETOT 11  -131.36364070448    -7.873E-09 3.463E-04 3.911E-05 2.951E-05 2.773E-03
 ETOT 12  -131.36364070785    -3.374E-09 1.998E-04 2.058E-05 2.062E-05 2.794E-03
 ETOT 13  -131.36364070922    -1.369E-09 3.142E-04 1.429E-06 1.231E-05 2.781E-03
 ETOT 14  -131.36364070942    -2.003E-10 1.856E-04 3.570E-08 4.732E-06 2.786E-03
 ETOT 15  -131.36364070944    -2.447E-11 2.811E-04 1.503E-07 3.288E-06 2.783E-03
 ETOT 16  -131.36364070946    -1.447E-11 1.719E-04 5.446E-08 1.617E-06 2.784E-03
 ETOT 17  -131.36364070946    -6.821E-12 2.631E-04 3.345E-09 4.566E-07 2.784E-03
 ETOT 18  -131.36364070947    -5.798E-12 1.585E-04 9.922E-10 2.419E-07 2.784E-03

 At SCF step   18, forces are converged :
  for the second time, max diff in force=  2.419E-07 < toldff=  5.000E-07

 Cartesian components of stress tensor (hartree/bohr^3)
  sigma(1 1)= -3.63158792E-06  sigma(3 2)=  0.00000000E+00
  sigma(2 2)= -3.63158792E-06  sigma(3 1)=  0.00000000E+00
  sigma(3 3)= -5.75125834E-06  sigma(2 1)=  0.00000000E+00

 Unit cell characteristics :
  acell=  7.5263228294E+00  7.5263228294E+00  7.5540263654E+00
  rprim=  1.0000000000E+00  0.0000000000E+00  0.0000000000E+00
          0.0000000000E+00  1.0000000000E+00  0.0000000000E+00
          0.0000000000E+00  0.0000000000E+00  1.0000000000E+00
  ucvol=  4.2790186738E+02 Bohr^3
  lengths=  7.5263228294E+00  7.5263228294E+00  7.5540263654E+00 Bohr
  angles (23,13,12)=  90.00000000  90.00000000  90.00000000 degrees
 Cartesian coordinates (bohr)
  0.00000000000000E+00  0.00000000000000E+00  2.89703586117906E-02
  3.76316141468865E+00  3.76316141468865E+00  3.86634584638671E+00
  0.00000000000000E+00  3.76316141468865E+00  3.74628161897522E+00
  3.76316141468865E+00  0.00000000000000E+00  3.74628161897522E+00
  3.76316141468865E+00  3.76316141468865E+00 -5.68398948403690E-02
 Cartesian forces (hart/bohr); max,rms= 2.78438E-03 9.85237E-04 (free atoms)
  0.00000000000000E+00  0.00000000000000E+00  1.59680360731800E-04
  0.00000000000000E+00  0.00000000000000E+00  2.60420920035179E-03
  0.00000000000000E+00  0.00000000000000E+00  1.02438173081211E-05
  0.00000000000000E+00  0.00000000000000E+00  1.02438173081211E-05
  0.00000000000000E+00  0.00000000000000E+00 -2.78437719569983E-03

 At the end of Broyden step  2, total energy= -1.31363640709471E+02 Ha.


 BROYDEN STEP NUMBER   3  ------------------------------------------------------

     iter   Etot(hartree)      deltaE(h)  residm     vres2    diffor    maxfor
 ETOT  1  -131.36342769301    -1.314E+02 1.931E-04 5.751E+00 6.542E-02 6.802E-02
 ETOT  2  -131.36361107229    -1.834E-04 1.595E-04 6.802E-01 8.948E-02 2.146E-02
 ETOT  3  -131.36363996966    -2.890E-05 1.707E-04 2.172E-01 2.576E-02 4.299E-03
 ETOT  4  -131.36365689102    -1.692E-05 1.389E-04 1.203E-02 9.911E-04 4.471E-03
 ETOT  5  -131.36365817445    -1.283E-06 1.463E-04 9.571E-04 1.923E-03 3.027E-03
 ETOT  6  -131.36365815800     1.645E-08 1.245E-04 1.634E-03 4.409E-04 2.779E-03
 ETOT  7  -131.36365828311    -1.251E-07 1.296E-04 2.030E-04 1.921E-04 2.740E-03
 ETOT  8  -131.36365829157    -8.461E-09 1.121E-04 6.029E-05 3.933E-05 2.720E-03
 ETOT  9  -131.36365829530    -3.734E-09 1.175E-04 3.441E-05 6.743E-06 2.727E-03
 ETOT 10  -131.36365829782    -2.516E-09 1.007E-04 1.744E-07 3.751E-06 2.730E-03
 ETOT 11  -131.36365829787    -5.593E-11 1.134E-04 3.443E-07 5.094E-06 2.728E-03
 ETOT 12  -131.36365829790    -2.714E-11 9.598E-05 2.476E-07 1.803E-06 2.730E-03
 ETOT 13  -131.36365829792    -2.177E-11 1.090E-04 2.096E-08 1.136E-06 2.729E-03
 ETOT 14  -131.36365829793    -4.718E-12 9.207E-05 4.218E-09 3.690E-07 2.729E-03
 ETOT 15  -131.36365829793    -2.132E-12 1.047E-04 1.529E-09 2.745E-07 2.729E-03

 At SCF step   15, forces are converged :
  for the second time, max diff in force=  2.745E-07 < toldff=  5.000E-07

 Cartesian components of stress tensor (hartree/bohr^3)
  sigma(1 1)=  3.74782390E-06  sigma(3 2)=  0.00000000E+00
  sigma(2 2)=  3.74782390E-06  sigma(3 1)=  0.00000000E+00
  sigma(3 3)= -2.65502233E-07  sigma(2 1)=  0.00000000E+00

 Unit cell characteristics :
  acell=  7.5294304114E+00  7.5294304114E+00  7.5576714683E+00
  rprim=  1.0000000000E+00  0.0000000000E+00  0.0000000000E+00
          0.0000000000E+00  1.0000000000E+00  0.0000000000E+00
          0.0000000000E+00  0.0000000000E+00  1.0000000000E+00
  ucvol=  4.2846194687E+02 Bohr^3
  lengths=  7.5294304114E+00  7.5294304114E+00  7.5576714683E+00 Bohr
  angles (23,13,12)=  90.00000000  90.00000000  90.00000000 degrees
 Cartesian coordinates (bohr)
  0.00000000000000E+00  0.00000000000000E+00  2.91583149890612E-02
  3.76471520569781E+00  3.76471520569781E+00  3.87124705110653E+00
  0.00000000000000E+00  3.76471520569781E+00  3.74810247775234E+00
  3.76471520569781E+00  0.00000000000000E+00  3.74810247775234E+00
  3.76471520569781E+00  3.76471520569781E+00 -6.01031192515000E-02
 Cartesian forces (hart/bohr); max,rms= 2.72920E-03 9.92615E-04 (free atoms)
  0.00000000000000E+00  0.00000000000000E+00  2.30312426200520E-04
  0.00000000000000E+00  0.00000000000000E+00  2.69417735186455E-03
  0.00000000000000E+00  0.00000000000000E+00 -9.76431460757026E-05
  0.00000000000000E+00  0.00000000000000E+00 -9.76431460757027E-05
  0.00000000000000E+00  0.00000000000000E+00 -2.72920348591366E-03

 At the end of Broyden step  3, total energy= -1.31363658297930E+02 Ha.


 BROYDEN STEP NUMBER   4  ------------------------------------------------------

     iter   Etot(hartree)      deltaE(h)  residm     vres2    diffor    maxfor
 ETOT  1  -131.35086152205    -1.314E+02 2.323E-04 2.982E+02 5.645E-01 5.672E-01
 ETOT  2  -131.36172822329    -1.087E-02 1.346E-04 2.476E+01 7.790E-01 2.118E-01
 ETOT  3  -131.36365491249    -1.927E-03 4.958E-04 1.356E+00 2.457E-01 3.392E-02
 ETOT  4  -131.36373151256    -7.660E-05 1.159E-04 3.831E-01 3.423E-02 5.948E-03
 ETOT  5  -131.36375855651    -2.704E-05 7.253E-05 1.501E-02 2.898E-03 3.050E-03
 ETOT  6  -131.36375997685    -1.420E-06 9.034E-05 1.969E-03 1.515E-03 2.805E-03
 ETOT  7  -131.36376022052    -2.437E-07 6.260E-05 2.157E-03 4.161E-04 2.679E-03
 ETOT  8  -131.36376043249    -2.120E-07 8.581E-05 1.300E-04 1.209E-04 2.688E-03
 ETOT  9  -131.36376047476    -4.228E-08 6.189E-05 3.692E-05 4.316E-05 2.731E-03
 ETOT 10  -131.36376048879    -1.403E-08 8.089E-05 9.523E-06 4.760E-05 2.699E-03
 ETOT 11  -131.36376049427    -5.479E-09 6.559E-05 1.419E-06 1.810E-05 2.700E-03
 ETOT 12  -131.36376049643    -2.163E-09 7.583E-05 9.590E-07 1.537E-05 2.715E-03
 ETOT 13  -131.36376049750    -1.068E-09 7.299E-05 6.709E-08 5.303E-06 2.710E-03
 ETOT 14  -131.36376049795    -4.460E-10 7.072E-05 1.676E-07 2.676E-06 2.713E-03
 ETOT 15  -131.36376049820    -2.502E-10 8.157E-05 4.037E-09 1.288E-06 2.711E-03
 ETOT 16  -131.36376049830    -1.066E-10 6.560E-05 5.729E-08 1.163E-06 2.713E-03
 ETOT 17  -131.36376049837    -6.972E-11 8.559E-05 3.881E-09 7.096E-07 2.712E-03
 ETOT 18  -131.36376049841    -3.189E-11 6.046E-05 1.380E-08 1.343E-06 2.713E-03
 ETOT 19  -131.36376049842    -1.714E-11 8.156E-05 3.609E-09 3.000E-07 2.714E-03
 ETOT 20  -131.36376049843    -9.919E-12 5.521E-05 5.832E-09 2.597E-07 2.714E-03

 At SCF step   20, forces are converged :
  for the second time, max diff in force=  2.597E-07 < toldff=  5.000E-07

 Cartesian components of stress tensor (hartree/bohr^3)
  sigma(1 1)=  3.34941462E-05  sigma(3 2)=  0.00000000E+00
  sigma(2 2)=  3.34941462E-05  sigma(3 1)=  0.00000000E+00
  sigma(3 3)=  1.14605906E-05  sigma(2 1)=  0.00000000E+00

 Unit cell characteristics :
  acell=  7.5420993161E+00  7.5420993161E+00  7.5773163315E+00
  rprim=  1.0000000000E+00  0.0000000000E+00  0.0000000000E+00
          0.0000000000E+00  1.0000000000E+00  0.0000000000E+00
          0.0000000000E+00  0.0000000000E+00  1.0000000000E+00
  ucvol=  4.3102247085E+02 Bohr^3
  lengths=  7.5420993161E+00  7.5420993161E+00  7.5773163315E+00 Bohr
  angles (23,13,12)=  90.00000000  90.00000000  90.00000000 degrees
 Cartesian coordinates (bohr)
  0.00000000000000E+00  0.00000000000000E+00  3.11425461481661E-02
  3.77104965804415E+00  3.77104965804415E+00  3.90788257680387E+00
  0.00000000000000E+00  3.77104965804415E+00  3.75736498523765E+00
  3.77104965804415E+00  0.00000000000000E+00  3.75736498523765E+00
  3.77104965804415E+00  3.77104965804415E+00 -8.77805961598055E-02
 Cartesian forces (hart/bohr); max,rms= 2.71384E-03 9.10673E-04 (free atoms)
  0.00000000000000E+00  0.00000000000000E+00  7.94221359018140E-04
  0.00000000000000E+00  0.00000000000000E+00  2.71383594161764E-03
  0.00000000000000E+00  0.00000000000000E+00 -9.30597041894393E-04
  0.00000000000000E+00  0.00000000000000E+00 -9.30597041894393E-04
  0.00000000000000E+00  0.00000000000000E+00 -1.64686321684699E-03

 At the end of Broyden step  4, total energy= -1.31363760498433E+02 Ha.


 BROYDEN STEP NUMBER   5  ------------------------------------------------------

     iter   Etot(hartree)      deltaE(h)  residm     vres2    diffor    maxfor
 ETOT  1  -131.34634772326    -1.313E+02 1.245E-03 3.842E+02 6.859E-01 6.886E-01
 ETOT  2  -131.36090041585    -1.455E-02 3.650E-04 3.575E+01 9.508E-01 2.622E-01
 ETOT  3  -131.36349655383    -2.596E-03 7.131E-04 3.945E+00 3.015E-01 4.105E-02
 ETOT  4  -131.36376440593    -2.679E-04 1.748E-04 7.069E-01 3.259E-02 1.371E-02
 ETOT  5  -131.36382818567    -6.378E-05 2.673E-04 1.073E-02 1.299E-02 4.074E-03
 ETOT  6  -131.36382975202    -1.566E-06 1.335E-04 1.625E-03 2.314E-03 1.760E-03
 ETOT  7  -131.36383005190    -2.999E-07 2.089E-04 1.652E-03 4.639E-04 1.684E-03
 ETOT  8  -131.36383027975    -2.278E-07 1.099E-04 4.920E-04 1.053E-04 1.702E-03
 ETOT  9  -131.36383033925    -5.950E-08 1.641E-04 2.116E-05 4.623E-05 1.699E-03
 ETOT 10  -131.36383034945    -1.020E-08 9.504E-05 4.526E-05 3.368E-05 1.722E-03
 ETOT 11  -131.36383035681    -7.362E-09 1.378E-04 4.132E-06 1.775E-05 1.709E-03
 ETOT 12  -131.36383035882    -2.007E-09 8.805E-05 2.018E-06 1.457E-05 1.720E-03
 ETOT 13  -131.36383035986    -1.040E-09 1.249E-04 2.217E-07 9.555E-06 1.715E-03
 ETOT 14  -131.36383036027    -4.163E-10 8.312E-05 7.831E-08 3.918E-06 1.719E-03
 ETOT 15  -131.36383036047    -1.956E-10 1.167E-04 2.345E-08 2.676E-06 1.717E-03
 ETOT 16  -131.36383036056    -9.300E-11 7.813E-05 2.171E-08 1.512E-06 1.718E-03
 ETOT 17  -131.36383036061    -4.357E-11 1.095E-04 6.930E-08 2.330E-06 1.719E-03
 ETOT 18  -131.36383036063    -2.100E-11 7.302E-05 7.839E-08 5.120E-07 1.719E-03
 ETOT 19  -131.36383036064    -1.029E-11 1.025E-04 4.570E-08 8.413E-07 1.718E-03
 ETOT 20  -131.36383036060     3.308E-11 6.799E-05 6.002E-07 3.684E-06 1.716E-03
 ETOT 21  -131.36383036062    -1.671E-11 9.583E-05 4.045E-07 5.187E-07 1.716E-03
 ETOT 22  -131.36383036053     9.004E-11 6.312E-05 1.696E-06 2.652E-06 1.714E-03
 ETOT 23  -131.36383036056    -3.203E-11 8.938E-05 1.194E-06 1.226E-06 1.715E-03
 ETOT 24  -131.36383036064    -7.876E-11 5.848E-05 1.795E-07 6.099E-06 1.718E-03
 ETOT 25  -131.36383036065    -1.029E-11 8.321E-05 8.228E-09 4.720E-06 1.718E-03
 ETOT 26  -131.36383036065    -1.251E-12 5.411E-05 4.711E-09 4.825E-07 1.718E-03
 ETOT 27  -131.36383036065     1.705E-12 7.738E-05 2.478E-09 2.905E-07 1.718E-03

 At SCF step   27, forces are converged :
  for the second time, max diff in force=  2.905E-07 < toldff=  5.000E-07

 Cartesian components of stress tensor (hartree/bohr^3)
  sigma(1 1)=  4.48073296E-05  sigma(3 2)=  0.00000000E+00
  sigma(2 2)=  4.48073296E-05  sigma(3 1)=  0.00000000E+00
  sigma(3 3)= -3.97152641E-06  sigma(2 1)=  0.00000000E+00

 Unit cell characteristics :
  acell=  7.5464082130E+00  7.5464082130E+00  7.5965664910E+00
  rprim=  1.0000000000E+00  0.0000000000E+00  0.0000000000E+00
          0.0000000000E+00  1.0000000000E+00  0.0000000000E+00
          0.0000000000E+00  0.0000000000E+00  1.0000000000E+00
  ucvol=  4.3261137215E+02 Bohr^3
  lengths=  7.5464082130E+00  7.5464082130E+00  7.5965664910E+00 Bohr
  angles (23,13,12)=  90.00000000  90.00000000  90.00000000 degrees
 Cartesian coordinates (bohr)
  0.00000000000000E+00  0.00000000000000E+00  3.44776769689487E-02
  3.77320410647871E+00  3.77320410647871E+00  3.95128327101565E+00
  0.00000000000000E+00  3.77320410647871E+00  3.76510096820967E+00
  3.77320410647871E+00  0.00000000000000E+00  3.76510096820967E+00
  3.77320410647871E+00  3.77320410647871E+00 -1.21113147929349E-01
 Cartesian forces (hart/bohr); max,rms= 1.71788E-03 8.17605E-04 (free atoms)
  0.00000000000000E+00  0.00000000000000E+00  1.45860963686394E-03
  0.00000000000000E+00  0.00000000000000E+00  1.13493767315879E-03
  0.00000000000000E+00  0.00000000000000E+00 -1.71787875314813E-03
  0.00000000000000E+00  0.00000000000000E+00 -1.71787875314813E-03
  0.00000000000000E+00  0.00000000000000E+00  8.42210196273517E-04

 At the end of Broyden step  5, total energy= -1.31363830360652E+02 Ha.


 BROYDEN STEP NUMBER   6  ------------------------------------------------------

     iter   Etot(hartree)      deltaE(h)  residm     vres2    diffor    maxfor
 ETOT  1  -131.36317857383    -1.314E+02 3.111E+02 1.479E+01 1.127E-01 1.138E-01
 ETOT  2  -131.36364428065    -4.657E-04 1.485E+00 3.719E+00 1.554E-01 4.157E-02
 ETOT  3  -131.36373590291    -9.162E-05 9.464E-02 1.464E+00 4.024E-02 1.331E-03
 ETOT  4  -131.36387220683    -1.363E-04 5.213E-02 5.166E-02 3.484E-03 2.153E-03
 ETOT  5  -131.36387782678    -5.620E-06 2.770E-03 5.532E-03 1.985E-03 1.896E-03
 ETOT  6  -131.36387782313     3.642E-09 1.709E-03 1.028E-02 1.400E-03 1.872E-03
 ETOT  7  -131.36387851798    -6.948E-07 1.076E-04 2.130E-03 2.473E-04 1.753E-03
 ETOT  8  -131.36387866369    -1.457E-07 4.526E-05 7.197E-05 7.025E-05 1.729E-03
 ETOT  9  -131.36387866299     7.007E-10 4.218E-05 2.152E-04 5.325E-05 1.720E-03
 ETOT 10  -131.36387867254    -9.548E-09 2.792E-05 4.778E-05 3.145E-05 1.724E-03
 ETOT 11  -131.36387867589    -3.350E-09 3.783E-05 8.797E-06 1.531E-05 1.726E-03
 ETOT 12  -131.36387867650    -6.137E-10 2.474E-05 4.573E-06 2.097E-06 1.727E-03
 ETOT 13  -131.36387867682    -3.155E-10 3.277E-05 1.259E-07 4.145E-06 1.726E-03
 ETOT 14  -131.36387867684    -2.183E-11 2.161E-05 4.032E-08 3.891E-07 1.727E-03
 ETOT 15  -131.36387867685    -1.145E-11 2.920E-05 3.075E-09 7.523E-07 1.726E-03
 ETOT 16  -131.36387867685    -2.757E-12 1.921E-05 4.262E-09 2.087E-07 1.726E-03
 ETOT 17  -131.36387867685    -3.411E-13 2.573E-05 4.506E-09 2.869E-07 1.727E-03

 At SCF step   17, forces are converged :
  for the second time, max diff in force=  2.869E-07 < toldff=  5.000E-07

 Cartesian components of stress tensor (hartree/bohr^3)
  sigma(1 1)=  3.09570746E-05  sigma(3 2)=  0.00000000E+00
  sigma(2 2)=  3.09570746E-05  sigma(3 1)=  0.00000000E+00
  sigma(3 3)= -1.45605371E-05  sigma(2 1)=  0.00000000E+00

 Unit cell characteristics :
  acell=  7.5381362470E+00  7.5381362470E+00  7.6013033168E+00
  rprim=  1.0000000000E+00  0.0000000000E+00  0.0000000000E+00
          0.0000000000E+00  1.0000000000E+00  0.0000000000E+00
          0.0000000000E+00  0.0000000000E+00  1.0000000000E+00
  ucvol=  4.3193264441E+02 Bohr^3
  lengths=  7.5381362470E+00  7.5381362470E+00  7.6013033168E+00 Bohr
  angles (23,13,12)=  90.00000000  90.00000000  90.00000000 degrees
 Cartesian coordinates (bohr)
  0.00000000000000E+00  0.00000000000000E+00  3.64142530607960E-02
  3.76906812347542E+00  3.76906812347542E+00  3.96037034362620E+00
  0.00000000000000E+00  3.76906812347542E+00  3.76560566579747E+00
  3.76906812347542E+00  0.00000000000000E+00  3.76560566579747E+00
  3.76906812347542E+00  3.76906812347542E+00 -1.26040953108720E-01
 Cartesian forces (hart/bohr); max,rms= 1.72651E-03 8.31750E-04 (free atoms)
  0.00000000000000E+00  0.00000000000000E+00  1.52885846333519E-03
  0.00000000000000E+00  0.00000000000000E+00  6.25309055196083E-04
  0.00000000000000E+00  0.00000000000000E+00 -1.72651051005166E-03
  0.00000000000000E+00  0.00000000000000E+00 -1.72651051005166E-03
  0.00000000000000E+00  0.00000000000000E+00  1.29885350157204E-03

 At the end of Broyden step  6, total energy= -1.31363878676852E+02 Ha.


 BROYDEN STEP NUMBER   7  ------------------------------------------------------

     iter   Etot(hartree)      deltaE(h)  residm     vres2    diffor    maxfor
 ETOT  1  -131.36067652231    -1.314E+02 2.130E+03 7.162E+01 1.699E-01 1.705E-01
 ETOT  2  -131.36280471813    -2.128E-03 3.111E+00 1.964E+01 2.308E-01 6.031E-02
 ETOT  3  -131.36323546583    -4.307E-04 4.839E-01 7.812E+00 5.350E-02 6.809E-03
 ETOT  4  -131.36393143892    -6.960E-04 1.262E-02 2.816E-01 8.664E-03 1.918E-03
 ETOT  5  -131.36395931820    -2.788E-05 5.426E-03 3.693E-02 3.624E-03 1.975E-03
 ETOT  6  -131.36396013999    -8.218E-07 4.256E-03 4.834E-02 1.910E-03 2.005E-03
 ETOT  7  -131.36396240909    -2.269E-06 4.027E-04 1.656E-02 2.191E-04 1.786E-03
 ETOT  8  -131.36396356183    -1.153E-06 2.556E-04 3.448E-04 3.533E-04 1.433E-03
 ETOT  9  -131.36396360753    -4.569E-08 4.451E-05 5.576E-04 1.244E-04 1.557E-03
 ETOT 10  -131.36396361664    -9.112E-09 2.432E-05 3.165E-04 3.523E-05 1.522E-03
 ETOT 11  -131.36396363192    -1.528E-08 3.367E-05 6.350E-05 4.965E-05 1.505E-03
 ETOT 12  -131.36396363820    -6.277E-09 1.274E-05 1.171E-05 1.306E-05 1.508E-03
 ETOT 13  -131.36396363934    -1.142E-09 3.385E-05 2.492E-06 1.087E-05 1.514E-03
 ETOT 14  -131.36396363955    -2.106E-10 1.242E-05 3.399E-07 4.836E-06 1.511E-03
 ETOT 15  -131.36396363954     1.285E-11 3.110E-05 1.153E-06 1.794E-06 1.511E-03
 ETOT 16  -131.36396363961    -7.836E-11 1.206E-05 2.100E-07 1.985E-06 1.511E-03
 ETOT 17  -131.36396363964    -2.134E-11 3.074E-05 6.442E-09 8.422E-07 1.512E-03
 ETOT 18  -131.36396363964    -6.480E-12 1.186E-05 3.815E-09 2.631E-07 1.512E-03
 ETOT 19  -131.36396363964    -1.251E-12 2.938E-05 4.344E-09 2.482E-07 1.512E-03

 At SCF step   19, forces are converged :
  for the second time, max diff in force=  2.482E-07 < toldff=  5.000E-07

 Cartesian components of stress tensor (hartree/bohr^3)
  sigma(1 1)= -1.16614605E-05  sigma(3 2)=  0.00000000E+00
  sigma(2 2)= -1.16614605E-05  sigma(3 1)=  0.00000000E+00
  sigma(3 3)= -2.99749200E-05  sigma(2 1)=  0.00000000E+00

 Unit cell characteristics :
  acell=  7.5110093731E+00  7.5110093731E+00  7.6208827719E+00
  rprim=  1.0000000000E+00  0.0000000000E+00  0.0000000000E+00
          0.0000000000E+00  1.0000000000E+00  0.0000000000E+00
          0.0000000000E+00  0.0000000000E+00  1.0000000000E+00
  ucvol=  4.2993409674E+02 Bohr^3
  lengths=  7.5110093731E+00  7.5110093731E+00  7.6208827719E+00 Bohr
  angles (23,13,12)=  90.00000000  90.00000000  90.00000000 degrees
 Cartesian coordinates (bohr)
  0.00000000000000E+00  0.00000000000000E+00  4.37141635156639E-02
  3.75550468654873E+00  3.75550468654873E+00  3.98415399617000E+00
  0.00000000000000E+00  3.75550468654873E+00  3.76792844499191E+00
  3.75550468654873E+00  0.00000000000000E+00  3.76792844499191E+00
  3.75550468654873E+00  3.75550468654873E+00 -1.32400891901345E-01
 Cartesian forces (hart/bohr); max,rms= 1.51185E-03 7.21892E-04 (free atoms)
  0.00000000000000E+00  0.00000000000000E+00  1.51185214470683E-03
  0.00000000000000E+00  0.00000000000000E+00 -5.62884665511265E-05
  0.00000000000000E+00  0.00000000000000E+00 -1.38164716528848E-03
  0.00000000000000E+00  0.00000000000000E+00 -1.38164716528848E-03
  0.00000000000000E+00  0.00000000000000E+00  1.30773065242125E-03

 At the end of Broyden step  7, total energy= -1.31363963639644E+02 Ha.


 BROYDEN STEP NUMBER   8  ------------------------------------------------------

     iter   Etot(hartree)      deltaE(h)  residm     vres2    diffor    maxfor
 ETOT  1  -131.36310738875    -1.314E+02 5.994E+03 1.468E+01 1.436E-01 1.436E-01
 ETOT  2  -131.36387931792    -7.719E-04 9.161E-01 1.251E+00 1.945E-01 5.088E-02
 ETOT  3  -131.36397135710    -9.204E-05 1.128E-02 2.249E-01 5.842E-02 7.541E-03
 ETOT  4  -131.36398646156    -1.510E-05 8.420E-04 2.595E-02 6.154E-03 2.193E-03
 ETOT  5  -131.36398858761    -2.126E-06 2.214E-05 8.529E-04 2.937E-03 2.599E-03
 ETOT  6  -131.36398867071    -8.310E-08 1.979E-05 1.485E-05 1.018E-03 1.581E-03
 ETOT  7  -131.36398868039    -9.672E-09 2.077E-05 3.869E-05 4.883E-05 1.600E-03
 ETOT  8  -131.36398868739    -7.001E-09 1.936E-05 1.756E-06 4.823E-05 1.552E-03
 ETOT  9  -131.36398868893    -1.540E-09 2.003E-05 1.467E-07 8.540E-06 1.560E-03
 ETOT 10  -131.36398868940    -4.691E-10 1.891E-05 6.949E-07 4.142E-06 1.557E-03
 ETOT 11  -131.36398868965    -2.585E-10 1.943E-05 9.406E-09 5.470E-06 1.562E-03
 ETOT 12  -131.36398868973    -7.836E-11 1.845E-05 6.535E-08 2.349E-06 1.560E-03
 ETOT 13  -131.36398868978    -4.306E-11 1.888E-05 1.260E-08 2.043E-06 1.562E-03
 ETOT 14  -131.36398868979    -1.802E-11 1.799E-05 8.298E-11 2.920E-07 1.562E-03
 ETOT 15  -131.36398868980    -7.873E-12 1.836E-05 4.154E-09 6.656E-07 1.562E-03
 ETOT 16  -131.36398868980    -2.956E-12 1.754E-05 7.024E-10 2.545E-07 1.561E-03
 ETOT 17  -131.36398868981    -1.819E-12 1.785E-05 4.034E-09 8.806E-07 1.561E-03
 ETOT 18  -131.36398868981    -1.904E-12 1.708E-05 6.934E-10 6.508E-07 1.561E-03
 ETOT 19  -131.36398868981     6.537E-13 1.734E-05 1.167E-09 1.414E-07 1.562E-03
 ETOT 20  -131.36398868981    -2.444E-12 1.662E-05 7.784E-10 4.678E-08 1.562E-03

 At SCF step   20, forces are converged :
  for the second time, max diff in force=  4.678E-08 < toldff=  5.000E-07

 Cartesian components of stress tensor (hartree/bohr^3)
  sigma(1 1)= -1.44654751E-05  sigma(3 2)=  0.00000000E+00
  sigma(2 2)= -1.44654751E-05  sigma(3 1)=  0.00000000E+00
  sigma(3 3)= -2.67188206E-05  sigma(2 1)=  0.00000000E+00

 Unit cell characteristics :
  acell=  7.5060416441E+00  7.5060416441E+00  7.6372896428E+00
  rprim=  1.0000000000E+00  0.0000000000E+00  0.0000000000E+00
          0.0000000000E+00  1.0000000000E+00  0.0000000000E+00
          0.0000000000E+00  0.0000000000E+00  1.0000000000E+00
  ucvol=  4.3028994796E+02 Bohr^3
  lengths=  7.5060416441E+00  7.5060416441E+00  7.6372896428E+00 Bohr
  angles (23,13,12)=  90.00000000  90.00000000  90.00000000 degrees
 Cartesian coordinates (bohr)
  0.00000000000000E+00  0.00000000000000E+00  4.82474369998045E-02
  3.75302082203234E+00  3.75302082203234E+00  4.00283942347340E+00
  0.00000000000000E+00  3.75302082203234E+00  3.77192023728245E+00
  3.75302082203234E+00  0.00000000000000E+00  3.77192023728245E+00
  3.75302082203234E+00  3.75302082203234E+00 -1.38992870875377E-01
 Cartesian forces (hart/bohr); max,rms= 1.56154E-03 7.03827E-04 (free atoms)
  0.00000000000000E+00  0.00000000000000E+00  1.56154484267633E-03
  0.00000000000000E+00  0.00000000000000E+00 -5.07248626730369E-04
  0.00000000000000E+00  0.00000000000000E+00 -1.20430530305265E-03
  0.00000000000000E+00  0.00000000000000E+00 -1.20430530305265E-03
  0.00000000000000E+00  0.00000000000000E+00  1.35431439015935E-03

 At the end of Broyden step  8, total energy= -1.31363988689809E+02 Ha.


 BROYDEN STEP NUMBER   9  ------------------------------------------------------

     iter   Etot(hartree)      deltaE(h)  residm     vres2    diffor    maxfor
 ETOT  1  -131.36101601488    -1.314E+02 1.283E+05 6.864E+01 2.571E-01 2.587E-01
 ETOT  2  -131.36366892538    -2.653E-03 1.363E+01 4.933E+00 2.963E-01 3.764E-02
 ETOT  3  -131.36369816685    -2.924E-05 9.605E-02 4.490E+00 3.987E-02 2.572E-03
 ETOT  4  -131.36401909407    -3.209E-04 2.898E-02 1.436E-01 4.329E-03 2.646E-03
 ETOT  5  -131.36402839585    -9.302E-06 4.166E-03 3.562E-02 9.881E-04 2.903E-03
 ETOT  6  -131.36403059858    -2.203E-06 1.547E-03 1.200E-02 1.098E-03 1.804E-03
 ETOT  7  -131.36403110469    -5.061E-07 1.777E-04 3.835E-03 3.257E-04 1.479E-03
 ETOT  8  -131.36403135382    -2.491E-07 3.785E-05 4.614E-04 1.791E-04 1.300E-03
 ETOT  9  -131.36403138901    -3.519E-08 4.906E-05 6.054E-05 9.680E-05 1.376E-03
 ETOT 10  -131.36403139452    -5.510E-09 1.598E-05 4.530E-06 4.170E-05 1.334E-03
 ETOT 11  -131.36403139568    -1.154E-09 4.172E-05 1.921E-06 2.001E-05 1.354E-03
 ETOT 12  -131.36403139609    -4.177E-10 1.439E-05 4.376E-07 5.956E-06 1.348E-03
 ETOT 13  -131.36403139628    -1.840E-10 3.086E-05 1.008E-07 2.398E-06 1.351E-03
 ETOT 14  -131.36403139634    -6.293E-11 1.372E-05 7.235E-08 1.152E-06 1.350E-03
 ETOT 15  -131.36403139638    -3.718E-11 2.188E-05 5.295E-09 6.602E-07 1.350E-03
 ETOT 16  -131.36403139639    -1.103E-11 1.332E-05 1.001E-08 3.147E-07 1.350E-03
 ETOT 17  -131.36403139639    -5.741E-12 4.536E-05 2.523E-09 3.829E-07 1.350E-03

 At SCF step   17, forces are converged :
  for the second time, max diff in force=  3.829E-07 < toldff=  5.000E-07

 Cartesian components of stress tensor (hartree/bohr^3)
  sigma(1 1)= -1.19405926E-05  sigma(3 2)=  0.00000000E+00
  sigma(2 2)= -1.19405926E-05  sigma(3 1)=  0.00000000E+00
  sigma(3 3)=  2.02964400E-06  sigma(2 1)=  0.00000000E+00

 Unit cell characteristics :
  acell=  7.4977261630E+00  7.4977261630E+00  7.6773944855E+00
  rprim=  1.0000000000E+00  0.0000000000E+00  0.0000000000E+00
          0.0000000000E+00  1.0000000000E+00  0.0000000000E+00
          0.0000000000E+00  0.0000000000E+00  1.0000000000E+00
  ucvol=  4.3159162234E+02 Bohr^3
  lengths=  7.4977261630E+00  7.4977261630E+00  7.6773944855E+00 Bohr
  angles (23,13,12)=  90.00000000  90.00000000  90.00000000 degrees
 Cartesian coordinates (bohr)
  0.00000000000000E+00  0.00000000000000E+00  6.07467744554587E-02
  3.74886308147705E+00  3.74886308147705E+00  4.03845142166310E+00
  0.00000000000000E+00  3.74886308147705E+00  3.78070723777410E+00
  3.74886308147705E+00  0.00000000000000E+00  3.78070723777410E+00
  3.74886308147705E+00  3.74886308147705E+00 -1.44520943467705E-01
 Cartesian forces (hart/bohr); max,rms= 1.35029E-03 3.92261E-04 (free atoms)
  0.00000000000000E+00  0.00000000000000E+00  1.35029203178427E-03
  0.00000000000000E+00  0.00000000000000E+00 -2.14304461566005E-04
  0.00000000000000E+00  0.00000000000000E+00 -4.16662228587826E-04
  0.00000000000000E+00  0.00000000000000E+00 -4.16662228587826E-04
  0.00000000000000E+00  0.00000000000000E+00 -3.02663113042615E-04

 At the end of Broyden step  9, total energy= -1.31364031396394E+02 Ha.


 BROYDEN STEP NUMBER  10  ------------------------------------------------------

     iter   Etot(hartree)      deltaE(h)  residm     vres2    diffor    maxfor
 ETOT  1  -131.36368395677    -1.314E+02 1.013E-04 7.529E+00 5.991E-02 5.970E-02
 ETOT  2  -131.36399403155    -3.101E-04 3.760E-05 6.427E-01 7.743E-02 1.773E-02
 ETOT  3  -131.36402277731    -2.875E-05 3.726E-05 2.241E-01 1.819E-02 9.463E-04
 ETOT  4  -131.36403667858    -1.390E-05 2.186E-05 1.412E-02 1.404E-03 1.054E-03
 ETOT  5  -131.36403790642    -1.228E-06 1.986E-05 2.606E-03 1.626E-03 1.891E-03
 ETOT  6  -131.36403807031    -1.639E-07 1.682E-05 7.772E-04 3.514E-04 1.540E-03
 ETOT  7  -131.36403810722    -3.691E-08 1.612E-05 2.795E-04 1.738E-04 1.366E-03
 ETOT  8  -131.36403812235    -1.513E-08 1.518E-05 4.721E-05 8.773E-05 1.279E-03
 ETOT  9  -131.36403812657    -4.216E-09 1.516E-05 9.061E-06 2.236E-05 1.301E-03
 ETOT 10  -131.36403812722    -6.517E-10 1.439E-05 2.532E-07 6.848E-06 1.298E-03
 ETOT 11  -131.36403812730    -8.069E-11 1.542E-05 7.248E-08 5.168E-06 1.303E-03
 ETOT 12  -131.36403812733    -3.476E-11 1.364E-05 1.385E-08 1.269E-06 1.302E-03
 ETOT 13  -131.36403812734    -1.083E-11 1.638E-05 1.322E-08 5.171E-07 1.302E-03
 ETOT 14  -131.36403812735    -5.485E-12 1.317E-05 1.709E-09 4.025E-07 1.302E-03
 ETOT 15  -131.36403812735    -4.263E-13 1.710E-05 9.306E-10 3.397E-07 1.302E-03

 At SCF step   15, forces are converged :
  for the second time, max diff in force=  3.397E-07 < toldff=  5.000E-07

 Cartesian components of stress tensor (hartree/bohr^3)
  sigma(1 1)= -2.35937112E-06  sigma(3 2)=  0.00000000E+00
  sigma(2 2)= -2.35937112E-06  sigma(3 1)=  0.00000000E+00
  sigma(3 3)=  5.75511891E-06  sigma(2 1)=  0.00000000E+00

 Unit cell characteristics :
  acell=  7.5014589687E+00  7.5014589687E+00  7.6843190151E+00
  rprim=  1.0000000000E+00  0.0000000000E+00  0.0000000000E+00
          0.0000000000E+00  1.0000000000E+00  0.0000000000E+00
          0.0000000000E+00  0.0000000000E+00  1.0000000000E+00
  ucvol=  4.3241112867E+02 Bohr^3
  lengths=  7.5014589687E+00  7.5014589687E+00  7.6843190151E+00 Bohr
  angles (23,13,12)=  90.00000000  90.00000000  90.00000000 degrees
 Cartesian coordinates (bohr)
  0.00000000000000E+00  0.00000000000000E+00  6.42440762465486E-02
  3.75072948433350E+00  3.75072948433350E+00  4.04701692112459E+00
  0.00000000000000E+00  3.75072948433350E+00  3.78210281119789E+00
  3.75072948433350E+00  0.00000000000000E+00  3.78210281119789E+00
  3.75072948433350E+00  3.75072948433350E+00 -1.48988097141581E-01
 Cartesian forces (hart/bohr); max,rms= 1.30233E-03 3.83149E-04 (free atoms)
  0.00000000000000E+00  0.00000000000000E+00  1.30233155366187E-03
  0.00000000000000E+00  0.00000000000000E+00 -5.23562562591900E-04
  0.00000000000000E+00  0.00000000000000E+00 -3.29949048911001E-04
  0.00000000000000E+00  0.00000000000000E+00 -3.29949048911001E-04
  0.00000000000000E+00  0.00000000000000E+00 -1.18870893247966E-04

 At the end of Broyden step 10, total energy= -1.31364038127351E+02 Ha.


 BROYDEN STEP NUMBER  11  ------------------------------------------------------

     iter   Etot(hartree)      deltaE(h)  residm     vres2    diffor    maxfor
 ETOT  1  -131.36373074382    -1.314E+02 4.376E-05 8.513E+00 1.011E-01 1.024E-01
 ETOT  2  -131.36397775763    -2.470E-04 1.884E-05 9.014E-01 1.357E-01 3.326E-02
 ETOT  3  -131.36402478888    -4.703E-05 2.265E-05 2.394E-01 3.872E-02 5.454E-03
 ETOT  4  -131.36404153697    -1.675E-05 1.785E-05 1.657E-02 1.974E-03 3.479E-03
 ETOT  5  -131.36404292714    -1.390E-06 1.551E-05 9.779E-04 2.414E-03 1.469E-03
 ETOT  6  -131.36404298763    -6.049E-08 1.569E-05 3.227E-04 4.630E-04 1.006E-03
 ETOT  7  -131.36404300985    -2.223E-08 1.324E-05 5.691E-05 2.844E-05 1.011E-03
 ETOT  8  -131.36404301539    -5.531E-09 1.529E-05 1.093E-05 6.452E-05 1.038E-03
 ETOT  9  -131.36404301708    -1.697E-09 1.138E-05 7.206E-07 8.780E-06 1.047E-03
 ETOT 10  -131.36404301733    -2.478E-10 1.497E-05 1.030E-07 3.678E-06 1.048E-03
 ETOT 11  -131.36404301738    -4.763E-11 1.117E-05 2.368E-07 2.917E-06 1.048E-03
 ETOT 12  -131.36404301741    -3.504E-11 1.469E-05 5.294E-08 1.961E-06 1.046E-03
 ETOT 13  -131.36404301743    -1.413E-11 1.095E-05 2.848E-10 9.493E-07 1.047E-03
 ETOT 14  -131.36404301743    -2.387E-12 1.442E-05 3.190E-09 4.097E-07 1.047E-03
 ETOT 15  -131.36404301743    -2.501E-12 1.074E-05 3.900E-10 2.668E-07 1.047E-03

 At SCF step   15, forces are converged :
  for the second time, max diff in force=  2.668E-07 < toldff=  5.000E-07

 Cartesian components of stress tensor (hartree/bohr^3)
  sigma(1 1)=  2.54904272E-06  sigma(3 2)=  0.00000000E+00
  sigma(2 2)=  2.54904272E-06  sigma(3 1)=  0.00000000E+00
  sigma(3 3)=  9.82678173E-06  sigma(2 1)=  0.00000000E+00

 Unit cell characteristics :
  acell=  7.5039619488E+00  7.5039619488E+00  7.6840200233E+00
  rprim=  1.0000000000E+00  0.0000000000E+00  0.0000000000E+00
          0.0000000000E+00  1.0000000000E+00  0.0000000000E+00
          0.0000000000E+00  0.0000000000E+00  1.0000000000E+00
  ucvol=  4.3268290234E+02 Bohr^3
  lengths=  7.5039619488E+00  7.5039619488E+00  7.6840200233E+00 Bohr
  angles (23,13,12)=  90.00000000  90.00000000  90.00000000 degrees
 Cartesian coordinates (bohr)
  0.00000000000000E+00  0.00000000000000E+00  6.74350332873795E-02
  3.75198097439505E+00  3.75198097439505E+00  4.04536965735282E+00
  0.00000000000000E+00  3.75198097439505E+00  3.78066221271136E+00
  3.75198097439505E+00  0.00000000000000E+00  3.78066221271136E+00
  3.75198097439505E+00  3.75198097439505E+00 -1.48099081132816E-01
 Cartesian forces (hart/bohr); max,rms= 1.04678E-03 3.04664E-04 (free atoms)
  0.00000000000000E+00  0.00000000000000E+00  1.04678165625911E-03
  0.00000000000000E+00  0.00000000000000E+00 -2.25975273678864E-04
  0.00000000000000E+00  0.00000000000000E+00 -2.14560388953075E-04
  0.00000000000000E+00  0.00000000000000E+00 -2.14560388953075E-04
  0.00000000000000E+00  0.00000000000000E+00 -3.91685604674096E-04

 At the end of Broyden step 11, total energy= -1.31364043017431E+02 Ha.


 BROYDEN STEP NUMBER  12  ------------------------------------------------------

     iter   Etot(hartree)      deltaE(h)  residm     vres2    diffor    maxfor
 ETOT  1  -131.36320349768    -1.314E+02 6.991E+05 2.212E+01 1.877E-01 1.887E-01
 ETOT  2  -131.36389026358    -6.868E-04 1.378E+05 2.045E+00 2.496E-01 6.087E-02
 ETOT  3  -131.36401303290    -1.228E-04 1.958E+04 5.497E-01 7.054E-02 9.673E-03
 ETOT  4  -131.36404695530    -3.392E-05 2.365E+03 3.349E-02 4.790E-03 4.882E-03
 ETOT  5  -131.36404959275    -2.637E-06 7.392E+01 4.823E-04 4.487E-03 8.210E-04
 ETOT  6  -131.36404965471    -6.196E-08 2.248E+01 1.158E-05 4.318E-04 4.387E-04
 ETOT  7  -131.36404966150    -6.784E-09 8.067E-01 6.149E-05 1.908E-04 6.295E-04
 ETOT  8  -131.36404966809    -6.594E-09 2.247E-01 5.671E-06 7.486E-05 5.546E-04
 ETOT  9  -131.36404966907    -9.798E-10 8.420E-03 7.373E-07 1.314E-05 5.579E-04
 ETOT 10  -131.36404966936    -2.935E-10 2.359E-03 2.024E-07 1.399E-05 5.439E-04
 ETOT 11  -131.36404966947    -1.050E-10 1.044E-04 2.632E-08 8.143E-06 5.520E-04
 ETOT 12  -131.36404966950    -2.981E-11 4.753E-05 3.368E-08 3.058E-06 5.490E-04
 ETOT 13  -131.36404966951    -1.350E-11 8.382E-06 1.616E-09 1.762E-06 5.508E-04
 ETOT 14  -131.36404966952    -4.803E-12 1.863E-05 1.572E-09 4.958E-07 5.505E-04
 ETOT 15  -131.36404966952    -3.610E-12 6.464E-06 3.547E-10 4.061E-07 5.509E-04

 At SCF step   15, forces are converged :
  for the second time, max diff in force=  4.061E-07 < toldff=  5.000E-07

 Cartesian components of stress tensor (hartree/bohr^3)
  sigma(1 1)=  5.90690208E-06  sigma(3 2)=  0.00000000E+00
  sigma(2 2)=  5.90690208E-06  sigma(3 1)=  0.00000000E+00
  sigma(3 3)=  8.69765219E-06  sigma(2 1)=  0.00000000E+00

 Unit cell characteristics :
  acell=  7.5064383474E+00  7.5064383474E+00  7.6807319642E+00
  rprim=  1.0000000000E+00  0.0000000000E+00  0.0000000000E+00
          0.0000000000E+00  1.0000000000E+00  0.0000000000E+00
          0.0000000000E+00  0.0000000000E+00  1.0000000000E+00
  ucvol=  4.3278325969E+02 Bohr^3
  lengths=  7.5064383474E+00  7.5064383474E+00  7.6807319642E+00 Bohr
  angles (23,13,12)=  90.00000000  90.00000000  90.00000000 degrees
 Cartesian coordinates (bohr)
  0.00000000000000E+00  0.00000000000000E+00  7.39623041053558E-02
  3.75321917372346E+00  3.75321917372346E+00  4.04200731319664E+00
  0.00000000000000E+00  3.75321917372346E+00  3.77664792647613E+00
  3.75321917372346E+00  0.00000000000000E+00  3.77664792647613E+00
  3.75321917372346E+00  3.75321917372346E+00 -1.48167523985976E-01
 Cartesian forces (hart/bohr); max,rms= 5.50919E-04 1.79665E-04 (free atoms)
  0.00000000000000E+00  0.00000000000000E+00  5.50918992542770E-04
  0.00000000000000E+00  0.00000000000000E+00 -1.85802514356750E-05
  0.00000000000000E+00  0.00000000000000E+00 -5.78115400199351E-05
  0.00000000000000E+00  0.00000000000000E+00 -5.78115400199351E-05
  0.00000000000000E+00  0.00000000000000E+00 -4.16715661067225E-04

 At the end of Broyden step 12, total energy= -1.31364049669520E+02 Ha.


 BROYDEN STEP NUMBER  13  ------------------------------------------------------

     iter   Etot(hartree)      deltaE(h)  residm     vres2    diffor    maxfor
 ETOT  1  -131.36343876213    -1.314E+02 1.574E+01 1.570E+01 1.628E-01 1.633E-01
 ETOT  2  -131.36392709655    -4.883E-04 4.174E-03 1.681E+00 2.144E-01 5.105E-02
 ETOT  3  -131.36400985903    -8.276E-05 1.469E-03 6.246E-01 5.770E-02 6.648E-03
 ETOT  4  -131.36405088119    -4.102E-05 1.066E-03 2.814E-02 2.554E-03 4.282E-03
 ETOT  5  -131.36405311803    -2.237E-06 2.188E-04 1.004E-03 3.852E-03 6.845E-04
 ETOT  6  -131.36405319895    -8.091E-08 8.687E-05 3.405E-04 6.435E-04 2.441E-04
 ETOT  7  -131.36405322873    -2.978E-08 2.370E-05 1.120E-04 1.869E-05 2.385E-04
 ETOT  8  -131.36405324213    -1.340E-08 1.401E-05 3.155E-06 4.146E-05 2.468E-04
 ETOT  9  -131.36405324351    -1.384E-09 8.993E-06 4.421E-06 2.179E-05 2.477E-04
 ETOT 10  -131.36405324426    -7.452E-10 8.545E-06 1.063E-06 3.665E-06 2.484E-04
 ETOT 11  -131.36405324436    -1.016E-10 7.768E-06 1.375E-06 4.208E-07 2.481E-04
 ETOT 12  -131.36405324448    -1.152E-10 8.009E-06 2.569E-07 2.342E-06 2.476E-04
 ETOT 13  -131.36405324443     5.033E-11 7.550E-06 1.526E-06 4.281E-06 2.433E-04
 ETOT 14  -131.36405324452    -9.683E-11 7.839E-06 4.872E-08 3.140E-06 2.465E-04
 ETOT 15  -131.36405324453    -5.798E-12 7.418E-06 3.211E-08 1.242E-06 2.458E-04
 ETOT 16  -131.36405324453    -3.865E-12 7.702E-06 8.531E-09 8.909E-07 2.467E-04
 ETOT 17  -131.36405324453     5.684E-13 7.297E-06 8.911E-09 3.885E-07 2.464E-04
 ETOT 18  -131.36405324453    -1.052E-12 7.575E-06 5.645E-09 4.327E-07 2.464E-04

 At SCF step   18, forces are converged :
  for the second time, max diff in force=  4.327E-07 < toldff=  5.000E-07

 Cartesian components of stress tensor (hartree/bohr^3)
  sigma(1 1)=  3.81498955E-06  sigma(3 2)=  0.00000000E+00
  sigma(2 2)=  3.81498955E-06  sigma(3 1)=  0.00000000E+00
  sigma(3 3)=  3.18028661E-06  sigma(2 1)=  0.00000000E+00

 Unit cell characteristics :
  acell=  7.5061844589E+00  7.5061844589E+00  7.6772023744E+00
  rprim=  1.0000000000E+00  0.0000000000E+00  0.0000000000E+00
          0.0000000000E+00  1.0000000000E+00  0.0000000000E+00
          0.0000000000E+00  0.0000000000E+00  1.0000000000E+00
  ucvol=  4.3255511733E+02 Bohr^3
  lengths=  7.5061844589E+00  7.5061844589E+00  7.6772023744E+00 Bohr
  angles (23,13,12)=  90.00000000  90.00000000  90.00000000 degrees
 Cartesian coordinates (bohr)
  0.00000000000000E+00  0.00000000000000E+00  7.99059934487162E-02
  3.75309222942776E+00  3.75309222942776E+00  4.03934949049927E+00
  0.00000000000000E+00  3.75309222942776E+00  3.77273133318450E+00
  3.75309222942776E+00  0.00000000000000E+00  3.77273133318450E+00
  3.75309222942776E+00  3.75309222942776E+00 -1.48914588799584E-01
 Cartesian forces (hart/bohr); max,rms= 2.46377E-04 7.31905E-05 (free atoms)
  0.00000000000000E+00  0.00000000000000E+00  1.11249805749828E-04
  0.00000000000000E+00  0.00000000000000E+00  1.68962750222539E-05
  0.00000000000000E+00  0.00000000000000E+00  5.91153101446192E-05
  0.00000000000000E+00  0.00000000000000E+00  5.91153101446192E-05
  0.00000000000000E+00  0.00000000000000E+00 -2.46376701061320E-04

 At the end of Broyden step 13, total energy= -1.31364053244533E+02 Ha.


 BROYDEN STEP NUMBER  14  ------------------------------------------------------

     iter   Etot(hartree)      deltaE(h)  residm     vres2    diffor    maxfor
 ETOT  1  -131.36402021150    -1.314E+02 3.291E+00 8.107E-01 3.161E-02 3.172E-02
 ETOT  2  -131.36404095499    -2.074E-05 1.624E-02 2.036E-01 4.039E-02 8.668E-03
 ETOT  3  -131.36404556929    -4.614E-06 3.504E-04 9.292E-02 8.497E-03 4.597E-04
 ETOT  4  -131.36405344829    -7.879E-06 1.043E-04 3.854E-03 7.414E-04 5.709E-04
 ETOT  5  -131.36405375546    -3.072E-07 2.152E-05 4.888E-04 2.486E-04 4.270E-04
 ETOT  6  -131.36405378294    -2.748E-08 2.002E-05 3.482E-04 4.054E-04 9.440E-05
 ETOT  7  -131.36405380167    -1.873E-08 7.217E-06 8.723E-05 3.602E-05 8.679E-05
 ETOT  8  -131.36405380783    -6.162E-09 8.459E-06 6.888E-06 4.301E-05 9.075E-05
 ETOT  9  -131.36405380841    -5.828E-10 5.136E-06 2.323E-06 1.766E-05 1.084E-04
 ETOT 10  -131.36405380851    -9.956E-11 8.324E-06 1.060E-06 6.447E-06 1.020E-04
 ETOT 11  -131.36405380859    -7.316E-11 4.880E-06 1.343E-07 2.089E-06 1.022E-04
 ETOT 12  -131.36405380861    -1.893E-11 8.198E-06 1.715E-08 5.424E-07 1.017E-04
 ETOT 13  -131.36405380861    -3.382E-12 4.808E-06 2.523E-08 7.508E-07 1.024E-04
 ETOT 14  -131.36405380861    -1.364E-12 8.073E-06 7.268E-09 4.295E-07 1.020E-04
 ETOT 15  -131.36405380861     1.279E-12 4.736E-06 7.372E-09 3.974E-07 1.016E-04

 At SCF step   15, forces are converged :
  for the second time, max diff in force=  3.974E-07 < toldff=  5.000E-07

 Cartesian components of stress tensor (hartree/bohr^3)
  sigma(1 1)=  1.02567788E-06  sigma(3 2)=  0.00000000E+00
  sigma(2 2)=  1.02567788E-06  sigma(3 1)=  0.00000000E+00
  sigma(3 3)= -4.56610375E-08  sigma(2 1)=  0.00000000E+00

 Unit cell characteristics :
  acell=  7.5049352955E+00  7.5049352955E+00  7.6764970470E+00
  rprim=  1.0000000000E+00  0.0000000000E+00  0.0000000000E+00
          0.0000000000E+00  1.0000000000E+00  0.0000000000E+00
          0.0000000000E+00  0.0000000000E+00  1.0000000000E+00
  ucvol=  4.3237143259E+02 Bohr^3
  lengths=  7.5049352955E+00  7.5049352955E+00  7.6764970470E+00 Bohr
  angles (23,13,12)=  90.00000000  90.00000000  90.00000000 degrees
 Cartesian coordinates (bohr)
  0.00000000000000E+00  0.00000000000000E+00  8.12779873536191E-02
  3.75246764773042E+00  3.75246764773042E+00  4.03923629140995E+00
  0.00000000000000E+00  3.75246764773042E+00  3.77192275360110E+00
  3.75246764773042E+00  0.00000000000000E+00  3.77192275360110E+00
  3.75246764773042E+00  3.75246764773042E+00 -1.49614215510249E-01
 Cartesian forces (hart/bohr); max,rms= 1.01611E-04 3.82133E-05 (free atoms)
  0.00000000000000E+00  0.00000000000000E+00  2.05491545860238E-05
  0.00000000000000E+00  0.00000000000000E+00 -5.02943922454393E-05
  0.00000000000000E+00  0.00000000000000E+00  6.56782177076080E-05
  0.00000000000000E+00  0.00000000000000E+00  6.56782177076080E-05
  0.00000000000000E+00  0.00000000000000E+00 -1.01611197755800E-04

 At the end of Broyden step 14, total energy= -1.31364053808609E+02 Ha.


 BROYDEN STEP NUMBER  15  ------------------------------------------------------

     iter   Etot(hartree)      deltaE(h)  residm     vres2    diffor    maxfor
 ETOT  1  -131.36405167076    -1.314E+02 3.775E-05 6.200E-02 4.619E-03 4.569E-03
 ETOT  2  -131.36405294386    -1.273E-06 1.540E-05 1.490E-02 6.464E-03 1.895E-03
 ETOT  3  -131.36405322269    -2.788E-07 9.644E-06 6.546E-03 1.663E-03 2.319E-04
 ETOT  4  -131.36405383860    -6.159E-07 4.004E-06 3.137E-04 2.536E-04 9.265E-05
 ETOT  5  -131.36405386699    -2.839E-08 9.533E-06 2.229E-05 4.340E-05 8.667E-05
 ETOT  6  -131.36405386680     1.904E-10 3.900E-06 4.650E-05 9.008E-05 8.276E-05
 ETOT  7  -131.36405387008    -3.279E-09 9.378E-06 8.543E-06 1.408E-05 6.868E-05
 ETOT  8  -131.36405387066    -5.822E-10 3.850E-06 3.205E-07 2.716E-06 6.768E-05
 ETOT  9  -131.36405387065     1.305E-11 9.234E-06 9.815E-07 3.705E-06 6.930E-05
 ETOT 10  -131.36405387070    -5.136E-11 3.793E-06 1.421E-07 2.422E-06 6.995E-05
 ETOT 11  -131.36405387071    -1.214E-11 9.099E-06 9.565E-09 8.240E-07 7.008E-05
 ETOT 12  -131.36405387071    -2.842E-13 3.737E-06 1.969E-08 9.493E-08 7.010E-05
 ETOT 13  -131.36405387071    -1.478E-12 8.964E-06 2.978E-09 1.655E-07 7.005E-05

 At SCF step   13, forces are converged :
  for the second time, max diff in force=  1.655E-07 < toldff=  5.000E-07

 Cartesian components of stress tensor (hartree/bohr^3)
  sigma(1 1)=  8.34455154E-08  sigma(3 2)=  0.00000000E+00
  sigma(2 2)=  8.34455154E-08  sigma(3 1)=  0.00000000E+00
  sigma(3 3)= -6.57349771E-07  sigma(2 1)=  0.00000000E+00

 Unit cell characteristics :
  acell=  7.5044034678E+00  7.5044034678E+00  7.6767552553E+00
  rprim=  1.0000000000E+00  0.0000000000E+00  0.0000000000E+00
          0.0000000000E+00  1.0000000000E+00  0.0000000000E+00
          0.0000000000E+00  0.0000000000E+00  1.0000000000E+00
  ucvol=  4.3232469713E+02 Bohr^3
  lengths=  7.5044034678E+00  7.5044034678E+00  7.6767552553E+00 Bohr
  angles (23,13,12)=  90.00000000  90.00000000  90.00000000 degrees
 Cartesian coordinates (bohr)
  0.00000000000000E+00  0.00000000000000E+00  8.12497612530220E-02
  3.75220173389498E+00  3.75220173389498E+00  4.03953047830968E+00
  0.00000000000000E+00  3.75220173389498E+00  3.77213531345267E+00
  3.75220173389498E+00  0.00000000000000E+00  3.77213531345267E+00
  3.75220173389498E+00  3.75220173389498E+00 -1.49917983615901E-01
 Cartesian forces (hart/bohr); max,rms= 7.00515E-05 2.99965E-05 (free atoms)
  0.00000000000000E+00  0.00000000000000E+00  2.71228650133250E-05
  0.00000000000000E+00  0.00000000000000E+00 -7.00514809616031E-05
  0.00000000000000E+00  0.00000000000000E+00  4.90458782472914E-05
  0.00000000000000E+00  0.00000000000000E+00  4.90458782472914E-05
  0.00000000000000E+00  0.00000000000000E+00 -5.51631405463047E-05

 At the end of Broyden step 15, total energy= -1.31364053870713E+02 Ha.


 BROYDEN STEP NUMBER  16  ------------------------------------------------------

     iter   Etot(hartree)      deltaE(h)  residm     vres2    diffor    maxfor
 ETOT  1  -131.36405338495    -1.314E+02 7.829E-02 1.589E-02 2.223E-03 2.278E-03
 ETOT  2  -131.36405377439    -3.894E-07 9.639E-04 1.877E-03 2.751E-03 7.550E-04
 ETOT  3  -131.36405376149     1.290E-08 7.954E-05 1.520E-03 7.042E-04 5.558E-05
 ETOT  4  -131.36405389128    -1.298E-07 8.601E-06 6.854E-05 7.210E-05 6.583E-05
 ETOT  5  -131.36405389753    -6.255E-09 3.453E-06 6.663E-06 6.310E-05 4.242E-05
 ETOT  6  -131.36405389762    -8.754E-11 8.483E-06 1.067E-05 2.816E-05 7.000E-05
 ETOT  7  -131.36405389829    -6.655E-10 3.403E-06 2.672E-06 4.932E-06 6.507E-05
 ETOT  8  -131.36405389845    -1.633E-10 8.356E-06 9.053E-08 2.275E-06 6.377E-05
 ETOT  9  -131.36405389845    -1.961E-12 3.354E-06 1.714E-07 1.255E-06 6.397E-05
 ETOT 10  -131.36405389846    -8.015E-12 8.233E-06 2.842E-08 9.666E-07 6.357E-05
 ETOT 11  -131.36405389846    -1.876E-12 3.304E-06 2.141E-09 3.664E-07 6.361E-05
 ETOT 12  -131.36405389846    -1.450E-12 8.113E-06 1.910E-09 6.390E-08 6.361E-05

 At SCF step   12, forces are converged :
  for the second time, max diff in force=  6.390E-08 < toldff=  5.000E-07

 Cartesian components of stress tensor (hartree/bohr^3)
  sigma(1 1)= -2.32519038E-07  sigma(3 2)=  0.00000000E+00
  sigma(2 2)= -2.32519038E-07  sigma(3 1)=  0.00000000E+00
  sigma(3 3)= -6.78351284E-07  sigma(2 1)=  0.00000000E+00

 Unit cell characteristics :
  acell=  7.5041752220E+00  7.5041752220E+00  7.6770999257E+00
  rprim=  1.0000000000E+00  0.0000000000E+00  0.0000000000E+00
          0.0000000000E+00  1.0000000000E+00  0.0000000000E+00
          0.0000000000E+00  0.0000000000E+00  1.0000000000E+00
  ucvol=  4.3231780859E+02 Bohr^3
  lengths=  7.5041752220E+00  7.5041752220E+00  7.6770999257E+00 Bohr
  angles (23,13,12)=  90.00000000  90.00000000  90.00000000 degrees
 Cartesian coordinates (bohr)
  0.00000000000000E+00  0.00000000000000E+00  8.12439876885779E-02
  3.75208761097622E+00  3.75208761097622E+00  4.03974135641589E+00
  0.00000000000000E+00  3.75208761097622E+00  3.77241224413394E+00
  3.75208761097622E+00  0.00000000000000E+00  3.77241224413394E+00
  3.75208761097622E+00  3.75208761097622E+00 -1.50159943886691E-01
 Cartesian forces (hart/bohr); max,rms= 6.36073E-05 2.31042E-05 (free atoms)
  0.00000000000000E+00  0.00000000000000E+00  2.88503128079075E-05
  0.00000000000000E+00  0.00000000000000E+00 -6.36072898440756E-05
  0.00000000000000E+00  0.00000000000000E+00  3.29012690671814E-05
  0.00000000000000E+00  0.00000000000000E+00  3.29012690671814E-05
  0.00000000000000E+00  0.00000000000000E+00 -3.10455610981946E-05

 At the end of Broyden step 16, total energy= -1.31364053898464E+02 Ha.


 BROYDEN STEP NUMBER  17  ------------------------------------------------------

     iter   Etot(hartree)      deltaE(h)  residm     vres2    diffor    maxfor
 ETOT  1  -131.36405346585    -1.314E+02 2.485E-02 9.848E-03 2.485E-03 2.516E-03
 ETOT  2  -131.36405377617    -3.103E-07 1.042E-03 2.026E-03 2.962E-03 6.576E-04
 ETOT  3  -131.36405379595    -1.978E-08 1.435E-04 1.681E-03 8.096E-04 1.609E-04
 ETOT  4  -131.36405392466    -1.287E-07 8.254E-06 4.276E-05 1.242E-04 1.075E-04
 ETOT  5  -131.36405392817    -3.511E-09 3.044E-06 8.660E-06 8.065E-05 4.163E-05
 ETOT  6  -131.36405392873    -5.659E-10 7.558E-06 3.297E-06 1.860E-05 2.352E-05
 ETOT  7  -131.36405392892    -1.917E-10 3.003E-06 3.987E-07 7.526E-06 3.034E-05
 ETOT  8  -131.36405392895    -2.080E-11 7.448E-06 4.904E-08 2.645E-06 3.216E-05
 ETOT  9  -131.36405392895    -6.480E-12 2.958E-06 8.542E-09 4.306E-07 3.234E-05
 ETOT 10  -131.36405392895     2.899E-12 7.340E-06 8.980E-09 5.763E-07 3.287E-05
 ETOT 11  -131.36405392895    -3.240E-12 2.915E-06 2.840E-10 1.214E-07 3.287E-05
 ETOT 12  -131.36405392895    -8.527E-13 7.233E-06 1.255E-10 5.403E-08 3.283E-05

 At SCF step   12, forces are converged :
  for the second time, max diff in force=  5.403E-08 < toldff=  5.000E-07

 Cartesian components of stress tensor (hartree/bohr^3)
  sigma(1 1)= -3.48504781E-07  sigma(3 2)=  0.00000000E+00
  sigma(2 2)= -3.48504781E-07  sigma(3 1)=  0.00000000E+00
  sigma(3 3)= -4.01866432E-07  sigma(2 1)=  0.00000000E+00

 Unit cell characteristics :
  acell=  7.5040098438E+00  7.5040098438E+00  7.6776741319E+00
  rprim=  1.0000000000E+00  0.0000000000E+00  0.0000000000E+00
          0.0000000000E+00  1.0000000000E+00  0.0000000000E+00
          0.0000000000E+00  0.0000000000E+00  1.0000000000E+00
  ucvol=  4.3233108747E+02 Bohr^3
  lengths=  7.5040098438E+00  7.5040098438E+00  7.6776741319E+00 Bohr
  angles (23,13,12)=  90.00000000  90.00000000  90.00000000 degrees
 Cartesian coordinates (bohr)
  0.00000000000000E+00  0.00000000000000E+00  8.13751758090991E-02
  3.75200492187608E+00  3.75200492187608E+00  4.03998241091383E+00
  0.00000000000000E+00  3.75200492187608E+00  3.77284972266573E+00
  3.75200492187608E+00  0.00000000000000E+00  3.77284972266573E+00
  3.75200492187608E+00  3.75200492187608E+00 -1.50545834252277E-01
 Cartesian forces (hart/bohr); max,rms= 3.28252E-05 1.02548E-05 (free atoms)
  0.00000000000000E+00  0.00000000000000E+00  1.92054888184523E-05
  0.00000000000000E+00  0.00000000000000E+00 -3.28252346497917E-05
  0.00000000000000E+00  0.00000000000000E+00  7.93713169652574E-06
  0.00000000000000E+00  0.00000000000000E+00  7.93713169652574E-06
  0.00000000000000E+00  0.00000000000000E+00 -2.25451756171210E-06

 At the end of Broyden step 17, total energy= -1.31364053928953E+02 Ha.


 BROYDEN STEP NUMBER  18  ------------------------------------------------------

     iter   Etot(hartree)      deltaE(h)  residm     vres2    diffor    maxfor
 ETOT  1  -131.36405355688    -1.314E+02 6.729E-06 6.432E-03 3.573E-03 3.592E-03
 ETOT  2  -131.36405381337    -2.565E-07 6.519E-06 1.675E-03 5.017E-03 1.425E-03
 ETOT  3  -131.36405391585    -1.025E-07 2.850E-06 3.220E-04 1.465E-03 6.228E-05
 ETOT  4  -131.36405393741    -2.156E-08 6.546E-06 5.211E-06 2.420E-05 7.659E-05
 ETOT  5  -131.36405393790    -4.877E-10 2.818E-06 1.093E-06 6.882E-05 1.634E-05
 ETOT  6  -131.36405393797    -7.131E-11 6.451E-06 1.098E-07 7.565E-06 1.043E-05
 ETOT  7  -131.36405393798    -1.194E-11 2.778E-06 6.140E-08 1.828E-06 8.665E-06
 ETOT  8  -131.36405393799    -8.583E-12 6.357E-06 3.588E-09 1.179E-06 7.544E-06
 ETOT  9  -131.36405393799     4.832E-13 2.737E-06 1.713E-09 2.810E-07 7.825E-06
 ETOT 10  -131.36405393799    -1.592E-12 6.265E-06 6.008E-10 1.404E-07 7.834E-06

 At SCF step   10, forces are converged :
  for the second time, max diff in force=  1.404E-07 < toldff=  5.000E-07

 Cartesian components of stress tensor (hartree/bohr^3)
  sigma(1 1)= -1.60698977E-07  sigma(3 2)=  0.00000000E+00
  sigma(2 2)= -1.60698977E-07  sigma(3 1)=  0.00000000E+00
  sigma(3 3)= -1.10959806E-07  sigma(2 1)=  0.00000000E+00

 Unit cell characteristics :
  acell=  7.5040614676E+00  7.5040614676E+00  7.6779252833E+00
  rprim=  1.0000000000E+00  0.0000000000E+00  0.0000000000E+00
          0.0000000000E+00  1.0000000000E+00  0.0000000000E+00
          0.0000000000E+00  0.0000000000E+00  1.0000000000E+00
  ucvol=  4.3235117850E+02 Bohr^3
  lengths=  7.5040614676E+00  7.5040614676E+00  7.6779252833E+00 Bohr
  angles (23,13,12)=  90.00000000  90.00000000  90.00000000 degrees
 Cartesian coordinates (bohr)
  0.00000000000000E+00  0.00000000000000E+00  8.15379088687778E-02
  3.75203073379228E+00  3.75203073379228E+00  4.04002749071768E+00
  0.00000000000000E+00  3.75203073379228E+00  3.77301715655957E+00
  3.75203073379228E+00  0.00000000000000E+00  3.77301715655957E+00
  3.75203073379228E+00  3.75203073379228E+00 -1.50711787854659E-01
 Cartesian forces (hart/bohr); max,rms= 7.83371E-06 2.83961E-06 (free atoms)
  0.00000000000000E+00  0.00000000000000E+00  6.12506922472203E-06
  0.00000000000000E+00  0.00000000000000E+00 -7.83371473392722E-06
  0.00000000000000E+00  0.00000000000000E+00 -1.30545589659248E-06
  0.00000000000000E+00  0.00000000000000E+00 -1.30545589659248E-06
  0.00000000000000E+00  0.00000000000000E+00  4.31955730239015E-06

 At the end of Broyden step 18, total energy= -1.31364053937991E+02 Ha.


 BROYDEN STEP NUMBER  19  ------------------------------------------------------

     iter   Etot(hartree)      deltaE(h)  residm     vres2    diffor    maxfor
 ETOT  1  -131.36405381884    -1.314E+02 6.268E-06 2.987E-03 1.939E-03 1.945E-03
 ETOT  2  -131.36405390958    -9.074E-08 6.018E-06 4.165E-04 2.639E-03 6.942E-04
 ETOT  3  -131.36405393273    -2.314E-08 2.614E-06 8.454E-05 7.580E-04 6.380E-05
 ETOT  4  -131.36405393865    -5.925E-09 5.983E-06 5.725E-06 2.354E-05 4.371E-05
 ETOT  5  -131.36405393911    -4.592E-10 2.586E-06 2.989E-07 4.107E-05 8.815E-06
 ETOT  6  -131.36405393913    -2.308E-11 5.896E-06 7.955E-08 8.655E-06 1.319E-06
 ETOT  7  -131.36405393914    -7.446E-12 2.548E-06 1.244E-08 4.479E-07 1.172E-06
 ETOT  8  -131.36405393914    -3.240E-12 5.812E-06 1.825E-09 1.249E-06 1.588E-06
 ETOT  9  -131.36405393914     8.811E-13 2.511E-06 4.444E-10 1.492E-07 1.439E-06
 ETOT 10  -131.36405393914     1.421E-13 5.728E-06 1.125E-10 4.619E-08 1.485E-06

 At SCF step   10, forces are converged :
  for the second time, max diff in force=  4.619E-08 < toldff=  5.000E-07

 Cartesian components of stress tensor (hartree/bohr^3)
  sigma(1 1)= -2.30530895E-08  sigma(3 2)=  0.00000000E+00
  sigma(2 2)= -2.30530896E-08  sigma(3 1)=  0.00000000E+00
  sigma(3 3)= -3.45953707E-09  sigma(2 1)=  0.00000000E+00

 Unit cell characteristics :
  acell=  7.5041310991E+00  7.5041310991E+00  7.6779361148E+00
  rprim=  1.0000000000E+00  0.0000000000E+00  0.0000000000E+00
          0.0000000000E+00  1.0000000000E+00  0.0000000000E+00
          0.0000000000E+00  0.0000000000E+00  1.0000000000E+00
  ucvol=  4.3235981221E+02 Bohr^3
  lengths=  7.5041310991E+00  7.5041310991E+00  7.6779361148E+00 Bohr
  angles (23,13,12)=  90.00000000  90.00000000  90.00000000 degrees
 Cartesian coordinates (bohr)
  0.00000000000000E+00  0.00000000000000E+00  8.16044844037754E-02
  3.75206554953787E+00  3.75206554953787E+00  4.03999315014220E+00
  0.00000000000000E+00  3.75206554953787E+00  3.77301249298617E+00
  3.75206554953787E+00  0.00000000000000E+00  3.77301249298617E+00
  3.75206554953787E+00  3.75206554953787E+00 -1.50718448373131E-01
 Cartesian forces (hart/bohr); max,rms= 1.48544E-06 5.34120E-07 (free atoms)
  0.00000000000000E+00  0.00000000000000E+00  5.25173995794180E-07
  0.00000000000000E+00  0.00000000000000E+00 -1.22845362734657E-07
  0.00000000000000E+00  0.00000000000000E+00 -9.43884138271748E-07
  0.00000000000000E+00  0.00000000000000E+00 -9.43884138271748E-07
  0.00000000000000E+00  0.00000000000000E+00  1.48543964348397E-06

 At the end of Broyden step 19, total energy= -1.31364053939143E+02 Ha.


 BROYDEN STEP NUMBER  20  ------------------------------------------------------

     iter   Etot(hartree)      deltaE(h)  residm     vres2    diffor    maxfor
 ETOT  1  -131.36405393547    -1.314E+02 5.662E-06 1.088E-04 2.616E-04 2.621E-04
 ETOT  2  -131.36405393835    -2.881E-09 5.561E-06 1.166E-05 3.516E-04 9.452E-05
 ETOT  3  -131.36405393862    -2.742E-10 2.403E-06 5.993E-06 1.033E-04 1.002E-05
 ETOT  4  -131.36405393915    -5.226E-10 5.488E-06 2.982E-07 5.438E-06 9.629E-06
 ETOT  5  -131.36405393918    -2.865E-11 2.370E-06 3.363E-08 7.638E-06 2.259E-06
 ETOT  6  -131.36405393918    -2.558E-13 5.409E-06 4.066E-08 2.517E-06 7.244E-07
 ETOT  7  -131.36405393918    -3.467E-12 2.336E-06 2.329E-09 3.845E-07 3.399E-07
 ETOT  8  -131.36405393918    -2.274E-13 5.332E-06 2.507E-09 1.985E-07 2.146E-07

 At SCF step    8, forces are converged :
  for the second time, max diff in force=  1.985E-07 < toldff=  5.000E-07

 Cartesian components of stress tensor (hartree/bohr^3)
  sigma(1 1)=  6.26442752E-10  sigma(3 2)=  0.00000000E+00
  sigma(2 2)=  6.26442745E-10  sigma(3 1)=  0.00000000E+00
  sigma(3 3)=  3.10877861E-09  sigma(2 1)=  0.00000000E+00

 Unit cell characteristics :
  acell=  7.5041468350E+00  7.5041468350E+00  7.6779149664E+00
  rprim=  1.0000000000E+00  0.0000000000E+00  0.0000000000E+00
          0.0000000000E+00  1.0000000000E+00  0.0000000000E+00
          0.0000000000E+00  0.0000000000E+00  1.0000000000E+00
  ucvol=  4.3236043459E+02 Bohr^3
  lengths=  7.5041468350E+00  7.5041468350E+00  7.6779149664E+00 Bohr
  angles (23,13,12)=  90.00000000  90.00000000  90.00000000 degrees
 Cartesian coordinates (bohr)
  0.00000000000000E+00  0.00000000000000E+00  8.16093605952709E-02
  3.75207341749508E+00  3.75207341749508E+00  4.03997567565906E+00
  0.00000000000000E+00  3.75207341749508E+00  3.77299635807678E+00
  3.75207341749508E+00  0.00000000000000E+00  3.77299635807678E+00
  3.75207341749508E+00  3.75207341749508E+00 -1.50705302845951E-01
 Cartesian forces (hart/bohr); max,rms= 2.14579E-07 9.55548E-08 (free atoms)
  0.00000000000000E+00  0.00000000000000E+00 -1.13677050101939E-07
  0.00000000000000E+00  0.00000000000000E+00  2.14578857565214E-07
  0.00000000000000E+00  0.00000000000000E+00 -1.45139134292060E-07
  0.00000000000000E+00  0.00000000000000E+00 -1.45139134292060E-07
  0.00000000000000E+00  0.00000000000000E+00  1.89376461120845E-07

 At the end of Broyden step 20, total energy= -1.31364053939180E+02 Ha.


 At Broyd/MD step  20, gradients are converged :
  max grad (force/stress) = 3.1088E-07 < tolmxf= 1.0000E-06 ha/bohr (free atoms)

================================================================================

 ----iterations are completed or convergence reached----

 Mean square residual over all n,k,spin=   1.3779E-08; max=  5.3315E-06
[...]
  -2.01196  -1.17460  -1.17219  -1.17154  -0.88898  -0.59665  -0.57306  -0.56891
  -0.35098  -0.34823  -0.33967  -0.09956  -0.08714  -0.07617  -0.06558  -0.05715
  -0.03548  -0.02516  -0.01245  -0.00676   0.10638
 kpt#  13, nband= 21, wtk=  0.03125, kpt=  0.3125  0.0625  0.1875 (reduced coord)
  -2.01194  -1.17456  -1.17307  -1.17151  -0.88734  -0.59778  -0.57192  -0.56591
  -0.35019  -0.34632  -0.33795  -0.11692  -0.09706  -0.08444  -0.07801  -0.06430
  -0.04332  -0.02789  -0.02229  -0.01077   0.11442
 kpt#  14, nband= 21, wtk=  0.03125, kpt=  0.4375  0.0625  0.1875 (reduced coord)
  -2.01192  -1.17453  -1.17368  -1.17148  -0.88616  -0.59995  -0.57078  -0.56244
  -0.34879  -0.34322  -0.33946  -0.13110  -0.10166  -0.09237  -0.08626  -0.06697
  -0.04155  -0.03498  -0.02621  -0.01621   0.11568
 kpt#  15, nband= 21, wtk=  0.01563, kpt=  0.1875  0.1875  0.1875 (reduced coord)
  -2.01194  -1.17457  -1.17217  -1.17215  -0.88793  -0.59458  -0.57220  -0.56884
  -0.35293  -0.35193  -0.33513  -0.10855  -0.08808  -0.08635  -0.06777  -0.06506
  -0.05406  -0.01896  -0.01295  -0.00764   0.11593
 kpt#  16, nband= 21, wtk=  0.03125, kpt=  0.3125  0.1875  0.1875 (reduced coord)
  -2.01192  -1.17453  -1.17303  -1.17212  -0.88644  -0.59394  -0.57035  -0.56679
  -0.35424  -0.35260  -0.33524  -0.12085  -0.10100  -0.08879  -0.07788  -0.07365
  -0.06084  -0.02105  -0.01619  -0.00882   0.12169
 kpt#  17, nband= 21, wtk=  0.03125, kpt=  0.4375  0.1875  0.1875 (reduced coord)
  -2.01190  -1.17450  -1.17365  -1.17210  -0.88536  -0.59496  -0.56918  -0.56346
  -0.35541  -0.34915  -0.33935  -0.13245  -0.10588  -0.09226  -0.08867  -0.07591
  -0.05817  -0.02500  -0.01895  -0.01226   0.12347
 kpt#  18, nband= 21, wtk=  0.01563, kpt=  0.3125  0.3125  0.1875 (reduced coord)
  -2.01190  -1.17449  -1.17300  -1.17298  -0.88513  -0.58951  -0.56770  -0.56723
  -0.35814  -0.35657  -0.33825  -0.12607  -0.10767  -0.10345  -0.08303  -0.07517
  -0.06948  -0.02265  -0.01521   0.00130   0.13590
 kpt#  19, nband= 21, wtk=  0.03125, kpt=  0.4375  0.3125  0.1875 (reduced coord)
  -2.01188  -1.17447  -1.17360  -1.17296  -0.88420  -0.58756  -0.56708  -0.56489
  -0.36047  -0.35654  -0.34365  -0.13452  -0.11312  -0.10950  -0.08816  -0.07787
  -0.06664  -0.02277  -0.01684   0.00541   0.13934
 kpt#  20, nband= 21, wtk=  0.01563, kpt=  0.4375  0.4375  0.1875 (reduced coord)
  -2.01187  -1.17444  -1.17356  -1.17356  -0.88337  -0.58203  -0.56603  -0.56563
  -0.36168  -0.36138  -0.34886  -0.13973  -0.12287  -0.11465  -0.08461  -0.08094
  -0.07342  -0.01691  -0.01397   0.01396   0.15236
 kpt#  21, nband= 21, wtk=  0.01563, kpt=  0.0625  0.0625  0.3125 (reduced coord)
  -2.01196  -1.17531  -1.17154  -1.17154  -0.88859  -0.60078  -0.56950  -0.56938
  -0.34762  -0.34633  -0.33841  -0.11418  -0.08241  -0.07992  -0.06282  -0.06041
  -0.03886  -0.03539  -0.01015  -0.00735   0.09086
 kpt#  22, nband= 21, wtk=  0.03125, kpt=  0.1875  0.0625  0.3125 (reduced coord)
  -2.01194  -1.17528  -1.17216  -1.17152  -0.88762  -0.59702  -0.57147  -0.56821
  -0.35031  -0.34611  -0.33756  -0.11720  -0.09717  -0.08309  -0.07692  -0.06552
  -0.04044  -0.02594  -0.01796  -0.01024   0.10852
 kpt#  23, nband= 21, wtk=  0.03125, kpt=  0.3125  0.0625  0.3125 (reduced coord)
  -2.01192  -1.17523  -1.17303  -1.17148  -0.88621  -0.59307  -0.57264  -0.56651
  -0.35157  -0.34636  -0.33817  -0.12354  -0.11374  -0.09929  -0.08129  -0.07321
  -0.04349  -0.03011  -0.02010  -0.00351   0.12960
 kpt#  24, nband= 21, wtk=  0.03125, kpt=  0.4375  0.0625  0.3125 (reduced coord)
  -2.01190  -1.17519  -1.17364  -1.17146  -0.88521  -0.59205  -0.57147  -0.56531
  -0.35062  -0.34781  -0.33900  -0.13376  -0.12041  -0.10976  -0.08765  -0.07444
  -0.04486  -0.02926  -0.02261  -0.00134   0.13323
 kpt#  25, nband= 21, wtk=  0.01563, kpt=  0.1875  0.1875  0.3125 (reduced coord)
  -2.01193  -1.17525  -1.17214  -1.17212  -0.88670  -0.59298  -0.57162  -0.56777
  -0.35489  -0.35112  -0.33485  -0.12039  -0.10274  -0.08911  -0.07886  -0.07049
  -0.05487  -0.01781  -0.01428  -0.01333   0.12011
 kpt#  26, nband= 21, wtk=  0.03125, kpt=  0.3125  0.1875  0.3125 (reduced coord)
  -2.01190  -1.17520  -1.17300  -1.17209  -0.88538  -0.58852  -0.57127  -0.56623
  -0.35766  -0.35551  -0.33762  -0.12536  -0.11113  -0.10005  -0.08352  -0.07499
  -0.06513  -0.02064  -0.01073  -0.00572   0.13556
 kpt#  27, nband= 21, wtk=  0.03125, kpt=  0.4375  0.1875  0.3125 (reduced coord)
  -2.01189  -1.17516  -1.17361  -1.17207  -0.88443  -0.58704  -0.56947  -0.56481
  -0.35887  -0.35591  -0.34309  -0.13413  -0.11340  -0.10805  -0.08847  -0.07663
  -0.06589  -0.02116  -0.01138  -0.00237   0.13859
 kpt#  28, nband= 21, wtk=  0.01563, kpt=  0.3125  0.3125  0.3125 (reduced coord)
  -2.01188  -1.17516  -1.17296  -1.17295  -0.88418  -0.58278  -0.56882  -0.56539
  -0.36446  -0.36220  -0.34443  -0.12718  -0.10890  -0.10786  -0.09202  -0.07686
  -0.07518  -0.01172  -0.00821   0.00035   0.14697
 kpt#  29, nband= 21, wtk=  0.03125, kpt=  0.4375  0.3125  0.3125 (reduced coord)
  -2.01187  -1.17512  -1.17356  -1.17293  -0.88333  -0.57985  -0.56639  -0.56415
  -0.36759  -0.36478  -0.35262  -0.13532  -0.11272  -0.10666  -0.09869  -0.07670
  -0.07378  -0.01245  -0.00381   0.00530   0.15026
 kpt#  30, nband= 21, wtk=  0.01563, kpt=  0.4375  0.4375  0.3125 (reduced coord)
  -2.01185  -1.17510  -1.17353  -1.17353  -0.88253  -0.57480  -0.56397  -0.56363
  -0.37074  -0.37071  -0.36161  -0.14045  -0.12268  -0.10680  -0.09409  -0.07616
  -0.07572  -0.00489  -0.00301   0.01459   0.16034
 kpt#  31, nband= 21, wtk=  0.01563, kpt=  0.0625  0.0625  0.4375 (reduced coord)
  -2.01195  -1.17580  -1.17152  -1.17152  -0.88750  -0.60382  -0.56899  -0.56596
  -0.34653  -0.34393  -0.33504  -0.12947  -0.08721  -0.08499  -0.07254  -0.06515
  -0.04416  -0.03988  -0.01407  -0.01053   0.09223
 kpt#  32, nband= 21, wtk=  0.03125, kpt=  0.1875  0.0625  0.4375 (reduced coord)
  -2.01193  -1.17576  -1.17213  -1.17150  -0.88664  -0.59862  -0.56876  -0.56770
  -0.34959  -0.34259  -0.33854  -0.13083  -0.10325  -0.08787  -0.08438  -0.06938
  -0.03968  -0.02880  -0.01999  -0.01581   0.10969
 kpt#  33, nband= 21, wtk=  0.03125, kpt=  0.3125  0.0625  0.4375 (reduced coord)
  -2.01191  -1.17570  -1.17300  -1.17147  -0.88541  -0.59075  -0.57188  -0.56701
  -0.35196  -0.34594  -0.33930  -0.13275  -0.12277  -0.10679  -0.08436  -0.07846
  -0.04105  -0.02949  -0.02025  -0.00114   0.13138
 kpt#  34, nband= 21, wtk=  0.03125, kpt=  0.4375  0.0625  0.4375 (reduced coord)
  -2.01189  -1.17566  -1.17360  -1.17144  -0.88452  -0.58489  -0.57346  -0.56729
  -0.35271  -0.34988  -0.33859  -0.13796  -0.13091  -0.12103  -0.08858  -0.08109
  -0.04826  -0.02096  -0.01710   0.00533   0.14536
 kpt#  35, nband= 21, wtk=  0.01563, kpt=  0.1875  0.1875  0.4375 (reduced coord)
  -2.01192  -1.17572  -1.17212  -1.17210  -0.88581  -0.59335  -0.56951  -0.56700
  -0.35633  -0.34668  -0.33888  -0.13117  -0.10930  -0.09059  -0.08819  -0.07285
  -0.05033  -0.01964  -0.01777  -0.01719   0.12187
 kpt#  36, nband= 21, wtk=  0.03125, kpt=  0.3125  0.1875  0.4375 (reduced coord)
  -2.01189  -1.17567  -1.17297  -1.17207  -0.88462  -0.58541  -0.57112  -0.56576
  -0.36065  -0.35331  -0.34313  -0.13242  -0.11754  -0.10536  -0.08817  -0.07617
  -0.06271  -0.01860  -0.01336  -0.00171   0.13897
 kpt#  37, nband= 21, wtk=  0.03125, kpt=  0.4375  0.1875  0.4375 (reduced coord)
  -2.01188  -1.17563  -1.17358  -1.17205  -0.88377  -0.57960  -0.57149  -0.56571
  -0.36064  -0.35795  -0.34881  -0.13795  -0.12233  -0.11359  -0.08726  -0.07871
  -0.06995  -0.01435  -0.00944   0.00574   0.14946
 kpt#  38, nband= 21, wtk=  0.01563, kpt=  0.3125  0.3125  0.4375 (reduced coord)
  -2.01187  -1.17562  -1.17294  -1.17292  -0.88351  -0.57753  -0.57000  -0.56404
  -0.36886  -0.36201  -0.35275  -0.13362  -0.11362  -0.10789  -0.09745  -0.07484
  -0.07345  -0.00577  -0.00536   0.00100   0.15080
 kpt#  39, nband= 21, wtk=  0.03125, kpt=  0.4375  0.3125  0.4375 (reduced coord)
  -2.01186  -1.17559  -1.17353  -1.17290  -0.88270  -0.57252  -0.56781  -0.56340
  -0.37111  -0.36824  -0.36198  -0.13904  -0.12178  -0.10847  -0.09291  -0.07624
  -0.07475  -0.00344   0.00310   0.00711   0.15846
 kpt#  40, nband= 21, wtk=  0.01563, kpt=  0.4375  0.4375  0.4375 (reduced coord)
  -2.01184  -1.17556  -1.17351  -1.17350  -0.88194  -0.56897  -0.56324  -0.56185
  -0.37694  -0.37553  -0.37119  -0.14359  -0.12255  -0.12126  -0.08023  -0.07512
  -0.07410   0.00561   0.00704   0.01475   0.16640
 Total charge density [el/Bohr^3]
,     Maximum=    1.3314E+00  at reduced coord.    0.5000    0.5000    0.4444
,Next maximum=    1.3240E+00  at reduced coord.    0.5000    0.5156    0.4444
,     Minimum=    9.4631E-05  at reduced coord.    0.0000    0.0000    0.0139
,Next minimum=    1.7838E-04  at reduced coord.    0.0000    0.0000    0.0000

--------------------------------------------------------------------------------
 Components of total free energy (in Hartree) :

    Kinetic energy  =  6.02973659625339E+01
    Hartree energy  =  2.94632651673256E+01
    XC energy       = -2.14053004886633E+01
    Ewald energy    = -1.03451268420385E+02
    PspCore energy  =  1.45346251852999E+01
    Loc. psp. energy= -6.05691393427604E+01
    NL   psp  energy= -5.02336020025305E+01
    >>>>>>>>> Etotal= -1.31364053939180E+02

 Other information on the energy :
    Total energy(eV)= -3.57459769714478E+03 ; Band energy (Ha)=  -1.9534854692E+01
--------------------------------------------------------------------------------
 rms coord change=  5.5545E-03   atom, delta coord (reduced):
     1        0.000000000000      0.000000000000      0.006764564912
     2        0.000000000000      0.000000000000      0.014811198502
     3        0.000000000000      0.000000000000     -0.004531183963
     4        0.000000000000      0.000000000000     -0.004531183963
     5        0.000000000000      0.000000000000     -0.012513395489

 Cartesian components of stress tensor (hartree/bohr^3)
  sigma(1 1)=  6.26442752E-10  sigma(3 2)=  0.00000000E+00
  sigma(2 2)=  6.26442745E-10  sigma(3 1)=  0.00000000E+00
  sigma(3 3)=  3.10877861E-09  sigma(2 1)=  0.00000000E+00

-Cartesian components of stress tensor (GPa)         [Pressure= -4.2775E-05 GPa]
- sigma(1 1)=  1.84305790E-05  sigma(3 2)=  0.00000000E+00
- sigma(2 2)=  1.84305788E-05  sigma(3 1)=  0.00000000E+00
- sigma(3 3)=  9.14634091E-05  sigma(2 1)=  0.00000000E+00

== END DATASET(S) ==============================================================
================================================================================
  
 -outvars: echo values of variables after computation  --------
     acell    7.5041468350E+00  7.5041468350E+00  7.6779149664E+00 Bohr
       amu    1.37327000E+02  4.78800000E+01  1.59994000E+01
    diemac    1.20000000E+01
   dilatmx    1.20000000E+00
      ecut    6.30000000E+01 Hartree
    ecutsm    3.00000000E+00 Hartree
    etotal   -1.3136405394E+02
     fcart    0.0000000000E+00  0.0000000000E+00 -1.1367705010E-07
              0.0000000000E+00  0.0000000000E+00  2.1457885757E-07
              0.0000000000E+00  0.0000000000E+00 -1.4513913429E-07
              0.0000000000E+00  0.0000000000E+00 -1.4513913429E-07
              0.0000000000E+00  0.0000000000E+00  1.8937646112E-07
    ionmov         2
       ixc        23
       kpt    6.25000000E-02  6.25000000E-02  6.25000000E-02
              1.87500000E-01  6.25000000E-02  6.25000000E-02
              3.12500000E-01  6.25000000E-02  6.25000000E-02
              4.37500000E-01  6.25000000E-02  6.25000000E-02
              1.87500000E-01  1.87500000E-01  6.25000000E-02
              3.12500000E-01  1.87500000E-01  6.25000000E-02
              4.37500000E-01  1.87500000E-01  6.25000000E-02
              3.12500000E-01  3.12500000E-01  6.25000000E-02
              4.37500000E-01  3.12500000E-01  6.25000000E-02
              4.37500000E-01  4.37500000E-01  6.25000000E-02
              6.25000000E-02  6.25000000E-02  1.87500000E-01
              1.87500000E-01  6.25000000E-02  1.87500000E-01
              3.12500000E-01  6.25000000E-02  1.87500000E-01
              4.37500000E-01  6.25000000E-02  1.87500000E-01
              1.87500000E-01  1.87500000E-01  1.87500000E-01
              3.12500000E-01  1.87500000E-01  1.87500000E-01
              4.37500000E-01  1.87500000E-01  1.87500000E-01
              3.12500000E-01  3.12500000E-01  1.87500000E-01
              4.37500000E-01  3.12500000E-01  1.87500000E-01
              4.37500000E-01  4.37500000E-01  1.87500000E-01
              6.25000000E-02  6.25000000E-02  3.12500000E-01
              1.87500000E-01  6.25000000E-02  3.12500000E-01
              3.12500000E-01  6.25000000E-02  3.12500000E-01
              4.37500000E-01  6.25000000E-02  3.12500000E-01
              1.87500000E-01  1.87500000E-01  3.12500000E-01
              3.12500000E-01  1.87500000E-01  3.12500000E-01
              4.37500000E-01  1.87500000E-01  3.12500000E-01
              3.12500000E-01  3.12500000E-01  3.12500000E-01
              4.37500000E-01  3.12500000E-01  3.12500000E-01
              4.37500000E-01  4.37500000E-01  3.12500000E-01
              6.25000000E-02  6.25000000E-02  4.37500000E-01
              1.87500000E-01  6.25000000E-02  4.37500000E-01
              3.12500000E-01  6.25000000E-02  4.37500000E-01
              4.37500000E-01  6.25000000E-02  4.37500000E-01
              1.87500000E-01  1.87500000E-01  4.37500000E-01
              3.12500000E-01  1.87500000E-01  4.37500000E-01
              4.37500000E-01  1.87500000E-01  4.37500000E-01
              3.12500000E-01  3.12500000E-01  4.37500000E-01
              4.37500000E-01  3.12500000E-01  4.37500000E-01
              4.37500000E-01  4.37500000E-01  4.37500000E-01
   kptrlen    5.95088961E+01
    kptopt         1
  kptrlatt    8  0  0   0  8  0   0  0  8
P    mkmem         3
     natom         5
     nband        21
     ngfft        64      64      72
      nkpt        40
     nstep        45
      nsym         8
     ntime        20
    ntypat         3
       occ    2.000000  2.000000  2.000000  2.000000  2.000000  2.000000
              2.000000  2.000000  2.000000  2.000000  2.000000  2.000000
              2.000000  2.000000  2.000000  2.000000  2.000000  2.000000
              2.000000  2.000000  0.000000
   optcell         2
    prtden         0
     prtwf         0
    shiftk    5.00000000E-01  5.00000000E-01  5.00000000E-01
   spgroup        99
    strten    6.2644275184E-10  6.2644274490E-10  3.1087786095E-09
              0.0000000000E+00  0.0000000000E+00  0.0000000000E+00
    symrel    1  0  0   0  1  0   0  0  1       1  0  0   0 -1  0   0  0  1
             -1  0  0   0 -1  0   0  0  1      -1  0  0   0  1  0   0  0  1
              0  1  0   1  0  0   0  0  1       0  1  0  -1  0  0   0  0  1
              0 -1  0  -1  0  0   0  0  1       0 -1  0   1  0  0   0  0  1
    toldff    5.00000000E-07
    tolmxf    1.00000000E-06
     typat    1  2  3  3  3
       wtk      0.01563    0.03125    0.03125    0.03125    0.01563    0.03125
                0.03125    0.01563    0.03125    0.01563    0.01563    0.03125
                0.03125    0.03125    0.01563    0.03125    0.03125    0.01563
                0.03125    0.01563    0.01563    0.03125    0.03125    0.03125
                0.01563    0.03125    0.03125    0.01563    0.03125    0.01563
                0.01563    0.03125    0.03125    0.03125    0.01563    0.03125
                0.03125    0.01563    0.03125    0.01563
    xangst    0.0000000000E+00  0.0000000000E+00  4.3185813635E-02
              1.9855117375E+00  1.9855117375E+00  2.1378630508E+00
              0.0000000000E+00  1.9855117375E+00  1.9965836808E+00
              1.9855117375E+00  0.0000000000E+00  1.9965836808E+00
              1.9855117375E+00  1.9855117375E+00 -7.9749811480E-02
     xcart    0.0000000000E+00  0.0000000000E+00  8.1609360595E-02
              3.7520734175E+00  3.7520734175E+00  4.0399756757E+00
              0.0000000000E+00  3.7520734175E+00  3.7729963581E+00
              3.7520734175E+00  0.0000000000E+00  3.7729963581E+00
              3.7520734175E+00  3.7520734175E+00 -1.5070530285E-01
      xred    0.0000000000E+00  0.0000000000E+00  1.0629104510E-02
              5.0000000000E-01  5.0000000000E-01  5.2618135175E-01
              0.0000000000E+00  5.0000000000E-01  4.9140897947E-01
              5.0000000000E-01  0.0000000000E+00  4.9140897947E-01
              5.0000000000E-01  5.0000000000E-01 -1.9628415202E-02
     znucl     56.00000   22.00000    8.00000

================================================================================


- Timing analysis has been suppressed with timopt=0



================================================================================

 Suggested references for the acknowledgment of ABINIT usage.

 The users of ABINIT have little formal obligations with respect to the ABINIT group
 (those specified in the GNU General Public License, http://www.gnu.org/copyleft/gpl.txt).
 However, it is common practice in the scientific literature,
 to acknowledge the efforts of people that have made the research possible.
 In this spirit, please find below suggested citations of work written by ABINIT developers,
 corresponding to implementations inside of ABINIT that you have used in the present run.
 Note also that it will be of great value to readers of publications presenting these results,
 to read papers enabling them to understand the theoretical formalism and details
 of the ABINIT implementation.
 For information on why they are suggested, see also http://www.abinit.org/about/?text=acknowledgments.

 [1] Ab initio pseudopotentials for electronic structure calculations of poly-atomic systems, 
 using density-functional theory.
 M. Fuchs, M. Scheffler, Comput. Phys. Commun. 119, 67 (1999).
 Comment : Some pseudopotential generated using the FHI code were used.

 [2] A brief introduction to the ABINIT software package.
 X. Gonze, G.-M. Rignanese, M. Verstraete, J.-M. Beuken, Y. Pouillon, R. Caracas, F. Jollet,
 M. Torrent, G. Zerah, M. Mikami, Ph. Ghosez, M. Veithen, J.-Y. Raty, V. Olevano, F. Bruneval,
 L. Reining, R. Godby, G. Onida, D.R. Hamann, and D.C. Allan.
 Z. Kristallogr. 220, 558-562 (2005).
 Comment : the second generic paper describing the ABINIT project. Note that this paper
 should be cited, especially if you are using the GW part of ABINIT, as the authors
 of this part are not in the list of authors of the first paper.
 The .pdf of the latter paper is available at http://www.abinit.org/about/zfk_0505-06_558-562.pdf.
 Note that it should not redistributed (Copyright by Oldenburg Wissenshaftverlag,
 the licence allows the authors to put it on the Web).

 [3] First-principles computation of material properties : the ABINIT software project. 
 X. Gonze, J.-M. Beuken, R. Caracas, F. Detraux, M. Fuchs, G.-M. Rignanese, L. Sindic,
 M. Verstraete, G. Zerah, F. Jollet, M. Torrent, A. Roy, M. Mikami, Ph. Ghosez, J.-Y. Raty, D.C. Allan.
 Computational Materials Science 25, 478-492 (2002). http://dx.doi.org/10.1016/S0927-0256(02)00325-7
 Comment : the original paper describing the ABINIT project.


 And optionally :

 [4] Fast radix 2, 3, 4 and 5 kernels for Fast Fourier Transformations
 on computers with overlapping multiply-add instructions.
 S. Goedecker, SIAM J. on Scientific Computing 18, 1605 (1997).

 [5] Iterative minimization techniques for ab initio total-energy calculations:
 molecular dynamics and conjugate gradients.
 M.C. Payne, M.P. Teter, D.C. Allan, T.A. Arias and J.D. Joannopoulos, Rev. Mod. Phys. 64, 1045 (1992).
-
- Proc.   0 individual time (sec): cpu=       2810.8  wall=       2810.8

================================================================================

 Calculation completed.
.Delivered    2 WARNINGs and  21 COMMENTs to log file.
+Overall time at end (sec) : cpu=      44972.1  wall=      44972.1
