
.Version 5.7.3  of ABINIT 
.(MPI version, prepared for a powerpc_aix5.3.0.0_genericunknown computer) 

.Copyright (C) 1998-2009 ABINIT group . 
 ABINIT comes with ABSOLUTELY NO WARRANTY.
 It is free software, and you are welcome to redistribute it
 under certain conditions (GNU General Public License,
 see ~abinit/COPYING or http://www.gnu.org/copyleft/gpl.txt).

 ABINIT is a project of the Universite Catholique de Louvain,
 Corning Inc. and other collaborators, see ~abinit/doc/developers/contributors.txt .
 Please read ~abinit/doc/users/acknowledgments.html for suggested
 acknowledgments of the ABINIT effort.
 For more information, see http://www.abinit.org .

.Starting date : Fri 31 Jul 2009.
  
- input  file    -> perovskite-a0.in
- output file    -> perovskite-a0.out
- root for input  files -> perovskite-a0_i
- root for output files -> perovskite-a0_o


 Symmetries : space group Pm -3 m (#221); Bravais cP (primitive cubic)
================================================================================
 Values of the parameters that define the memory need of the present run
   intxc =         0  ionmov =         2    iscf =         7 xclevel =         2
  lmnmax =         4   lnmax =         4   mband =        21  mffmem =         1
P  mgfft =        72   mkmem =         2 mpssoang=         4     mpw =     18313
  mqgrid =      3001   natom =         5    nfft =    373248    nkpt =        20
  nloalg =         4  nspden =         1 nspinor =         1  nsppol =         1
    nsym =        48  n1xccc =         0  ntypat =         3  occopt =         1
================================================================================
P This job should need less than                     127.257 Mbytes of memory.
  Rough estimation (10% accuracy) of disk space for files :
  WF disk file :    117.364 Mbytes ; DEN or POT disk file :      2.850 Mbytes.
================================================================================

 -outvars: echo values of preprocessed input variables --------
     acell    7.6224690964E+00  7.6224690964E+00  7.6224690964E+00 Bohr
       amu    1.37327000E+02  4.78800000E+01  1.59994000E+01
    diemac    1.20000000E+01
   dilatmx    1.20000000E+00
      ecut    6.30000000E+01 Hartree
    ecutsm    3.00000000E+00 Hartree
    ionmov         2
       ixc        23
       kpt    6.25000000E-02  6.25000000E-02  6.25000000E-02
              1.87500000E-01  6.25000000E-02  6.25000000E-02
              3.12500000E-01  6.25000000E-02  6.25000000E-02
              4.37500000E-01  6.25000000E-02  6.25000000E-02
              1.87500000E-01  1.87500000E-01  6.25000000E-02
              3.12500000E-01  1.87500000E-01  6.25000000E-02
              4.37500000E-01  1.87500000E-01  6.25000000E-02
              3.12500000E-01  3.12500000E-01  6.25000000E-02
              4.37500000E-01  3.12500000E-01  6.25000000E-02
              4.37500000E-01  4.37500000E-01  6.25000000E-02
              1.87500000E-01  1.87500000E-01  1.87500000E-01
              3.12500000E-01  1.87500000E-01  1.87500000E-01
              4.37500000E-01  1.87500000E-01  1.87500000E-01
              3.12500000E-01  3.12500000E-01  1.87500000E-01
              4.37500000E-01  3.12500000E-01  1.87500000E-01
              4.37500000E-01  4.37500000E-01  1.87500000E-01
              3.12500000E-01  3.12500000E-01  3.12500000E-01
              4.37500000E-01  3.12500000E-01  3.12500000E-01
              4.37500000E-01  4.37500000E-01  3.12500000E-01
              4.37500000E-01  4.37500000E-01  4.37500000E-01
   kptrlen    6.09797528E+01
    kptopt         1
  kptrlatt    8  0  0   0  8  0   0  0  8
P    mkmem         2
     natom         5
     nband        21
     ngfft        72      72      72
      nkpt        20
     nstep        35
      nsym        48
     ntime        30
    ntypat         3
       occ    2.000000  2.000000  2.000000  2.000000  2.000000  2.000000
              2.000000  2.000000  2.000000  2.000000  2.000000  2.000000
              2.000000  2.000000  2.000000  2.000000  2.000000  2.000000
              2.000000  2.000000  0.000000
   optcell         2
    prtden         0
     prtwf         0
    shiftk    5.00000000E-01  5.00000000E-01  5.00000000E-01
   spgroup       221
    symrel    1  0  0   0  1  0   0  0  1      -1  0  0   0 -1  0   0  0 -1
             -1  0  0   0  1  0   0  0 -1       1  0  0   0 -1  0   0  0  1
             -1  0  0   0 -1  0   0  0  1       1  0  0   0  1  0   0  0 -1
              1  0  0   0 -1  0   0  0 -1      -1  0  0   0  1  0   0  0  1
              0  1  0   1  0  0   0  0  1       0 -1  0  -1  0  0   0  0 -1
              0 -1  0   1  0  0   0  0 -1       0  1  0  -1  0  0   0  0  1
              0 -1  0  -1  0  0   0  0  1       0  1  0   1  0  0   0  0 -1
              0  1  0  -1  0  0   0  0 -1       0 -1  0   1  0  0   0  0  1
              0  0  1   1  0  0   0  1  0       0  0 -1  -1  0  0   0 -1  0
              0  0 -1   1  0  0   0 -1  0       0  0  1  -1  0  0   0  1  0
              0  0 -1  -1  0  0   0  1  0       0  0  1   1  0  0   0 -1  0
              0  0  1  -1  0  0   0 -1  0       0  0 -1   1  0  0   0  1  0
              1  0  0   0  0  1   0  1  0      -1  0  0   0  0 -1   0 -1  0
             -1  0  0   0  0  1   0 -1  0       1  0  0   0  0 -1   0  1  0
             -1  0  0   0  0 -1   0  1  0       1  0  0   0  0  1   0 -1  0
              1  0  0   0  0 -1   0 -1  0      -1  0  0   0  0  1   0  1  0
              0  1  0   0  0  1   1  0  0       0 -1  0   0  0 -1  -1  0  0
              0 -1  0   0  0  1  -1  0  0       0  1  0   0  0 -1   1  0  0
              0 -1  0   0  0 -1   1  0  0       0  1  0   0  0  1  -1  0  0
              0  1  0   0  0 -1  -1  0  0       0 -1  0   0  0  1   1  0  0
              0  0  1   0  1  0   1  0  0       0  0 -1   0 -1  0  -1  0  0
              0  0 -1   0  1  0  -1  0  0       0  0  1   0 -1  0   1  0  0
              0  0 -1   0 -1  0   1  0  0       0  0  1   0  1  0  -1  0  0
              0  0  1   0 -1  0  -1  0  0       0  0 -1   0  1  0   1  0  0
    toldfe    1.00000000E-10 Hartree
    tolmxf    1.00000000E-06
     typat    1  2  3  3  3
       wtk      0.01563    0.04688    0.04688    0.04688    0.04688    0.09375
                0.09375    0.04688    0.09375    0.04688    0.01563    0.04688
                0.04688    0.04688    0.09375    0.04688    0.01563    0.04688
                0.04688    0.01563
    xangst    0.0000000000E+00  0.0000000000E+00  0.0000000000E+00
              2.0168184595E+00  2.0168184595E+00  2.0168184595E+00
              0.0000000000E+00  2.0168184595E+00  2.0168184595E+00
              2.0168184595E+00  0.0000000000E+00  2.0168184595E+00
              2.0168184595E+00  2.0168184595E+00  0.0000000000E+00
     xcart    0.0000000000E+00  0.0000000000E+00  0.0000000000E+00
              3.8112345482E+00  3.8112345482E+00  3.8112345482E+00
              0.0000000000E+00  3.8112345482E+00  3.8112345482E+00
              3.8112345482E+00  0.0000000000E+00  3.8112345482E+00
              3.8112345482E+00  3.8112345482E+00  0.0000000000E+00
      xred    0.0000000000E+00  0.0000000000E+00  0.0000000000E+00
              5.0000000000E-01  5.0000000000E-01  5.0000000000E-01
              0.0000000000E+00  5.0000000000E-01  5.0000000000E-01
              5.0000000000E-01  0.0000000000E+00  5.0000000000E-01
              5.0000000000E-01  5.0000000000E-01  0.0000000000E+00
     znucl     56.00000   22.00000    8.00000

================================================================================

 chkinp: Checking input parameters for consistency.

================================================================================
== DATASET  1 ==================================================================

 Real(R)+Recip(G) space primitive vectors, cartesian coordinates (Bohr,Bohr^-1):
 R(1)=  7.6224691  0.0000000  0.0000000  G(1)=  0.1311911  0.0000000  0.0000000
 R(2)=  0.0000000  7.6224691  0.0000000  G(2)=  0.0000000  0.1311911  0.0000000
 R(3)=  0.0000000  0.0000000  7.6224691  G(3)=  0.0000000  0.0000000  0.1311911
 Unit cell volume ucvol=  4.4288097E+02 bohr^3
 Angles (23,13,12)=  9.00000000E+01  9.00000000E+01  9.00000000E+01 degrees

 getcut: wavevector=  0.0000  0.0000  0.0000  ngfft=  72  72  72
         ecut(hartree)=     90.720   => boxcut(ratio)=   2.20303

 getcut : COMMENT -
  Note that boxcut > 2.2 ; recall that boxcut=Gcut(box)/Gcut(sphere) = 2
  is sufficient for exact treatment of convolution.
  Such a large boxcut is a waste : you could raise ecut
  e.g. ecut=  110.073660 Hartrees makes boxcut=2


--- Pseudopotential description ------------------------------------------------
- pspini: atom type   1  psp file is ba.wcgga.fhi
- pspatm: opening atomic psp file    ba.wcgga.fhi
 OPIUM generated Ba potential
  56.00000  10.00000     90731                znucl, zion, pspdat
    6   23    3    3      1179   0.00000      pspcod,pspxc,lmax,lloc,mmax,r2well
    0.00000000000000    0.00000000000000    0.00000000000000   rchrg,fchrg,qchrg
  1.013085          amesh (Hamman grid)
 pspatm: epsatm=   82.20741810
         --- l  ekb(1:nproj) -->
             0   -1.025000
             1   -0.812020
             2   -5.512288
 pspatm: atomic psp has been read  and splines computed

- pspini: atom type   2  psp file is ti.wcgga.fhi
- pspatm: opening atomic psp file    ti.wcgga.fhi
 OPIUM generated Ti potential
  22.00000  12.00000     90731                znucl, zion, pspdat
    6   23    3    3      1156   0.00000      pspcod,pspxc,lmax,lloc,mmax,r2well
    0.00000000000000    0.00000000000000    0.00000000000000   rchrg,fchrg,qchrg
  1.013085          amesh (Hamman grid)
 pspatm: epsatm=   51.36980524
         --- l  ekb(1:nproj) -->
             0   -5.227900
             1   -6.911342
             2   -8.639772
 pspatm: atomic psp has been read  and splines computed

- pspini: atom type   3  psp file is o.wcgga.fhi
- pspatm: opening atomic psp file    o.wcgga.fhi
 OPIUM generated O potential
   8.00000   6.00000     90731                znucl, zion, pspdat
    6   23    1    0      1130   0.00000      pspcod,pspxc,lmax,lloc,mmax,r2well
    0.00000000000000    0.00000000000000    0.00000000000000   rchrg,fchrg,qchrg
  1.013085          amesh (Hamman grid)
 pspatm: epsatm=    7.84256607
         --- l  ekb(1:nproj) -->
             1   -3.641985
 pspatm: atomic psp has been read  and splines computed

   6.28419686E+03                                ecore*ucvol(ha*bohr**3)
--------------------------------------------------------------------------------

P newkpt: treating     21 bands with npw=   18283 for ikpt=   1 by node    0
P newkpt: treating     21 bands with npw=   18286 for ikpt=   2 by node    0
P newkpt: treating     21 bands with npw=   18294 for ikpt=   3 by node    1
P newkpt: treating     21 bands with npw=   18300 for ikpt=   4 by node    1
P newkpt: treating     21 bands with npw=   18285 for ikpt=   5 by node    2
P newkpt: treating     21 bands with npw=   18282 for ikpt=   6 by node    2
P newkpt: treating     21 bands with npw=   18283 for ikpt=   7 by node    3
P newkpt: treating     21 bands with npw=   18278 for ikpt=   8 by node    3
P newkpt: treating     21 bands with npw=   18266 for ikpt=   9 by node    4
P newkpt: treating     21 bands with npw=   18301 for ikpt=  10 by node    4
P newkpt: treating     21 bands with npw=   18253 for ikpt=  11 by node    5
P newkpt: treating     21 bands with npw=   18268 for ikpt=  12 by node    5
P newkpt: treating     21 bands with npw=   18313 for ikpt=  13 by node    6
P newkpt: treating     21 bands with npw=   18269 for ikpt=  14 by node    6
P newkpt: treating     21 bands with npw=   18284 for ikpt=  15 by node    7
P newkpt: treating     21 bands with npw=   18273 for ikpt=  16 by node    7
P newkpt: treating     21 bands with npw=   18283 for ikpt=  17 by node    8
P newkpt: treating     21 bands with npw=   18274 for ikpt=  18 by node    8
P newkpt: treating     21 bands with npw=   18247 for ikpt=  19 by node    9
P newkpt: treating     21 bands with npw=   18237 for ikpt=  20 by node    9

 setup2: Arith. and geom. avg. npw (full set) are   18279.844   18279.837

================================================================================

 BROYDEN STEP NUMBER   0  ------------------------------------------------------

     iter   Etot(hartree)      deltaE(h)  residm     vres2    diffor    maxfor
 ETOT  1  -129.37840451233    -1.294E+02 9.582E-01 1.068E+04 0.000E+00 0.000E+00
 ETOT  2  -130.55795756762    -1.180E+00 4.163E-01 1.212E+04 0.000E+00 0.000E+00
 ETOT  3  -131.28131854106    -7.234E-01 2.256E-01 2.401E+03 0.000E+00 0.000E+00
 ETOT  4  -131.30945390792    -2.814E-02 2.935E-02 8.615E+02 0.000E+00 0.000E+00
 ETOT  5  -131.35775992350    -4.831E-02 1.061E-02 1.408E+01 0.000E+00 0.000E+00
 ETOT  6  -131.36032101337    -2.561E-03 3.690E-03 1.883E+01 0.000E+00 0.000E+00
 ETOT  7  -131.36143701310    -1.116E-03 4.499E-03 1.526E+00 0.000E+00 0.000E+00
 ETOT  8  -131.36156287584    -1.259E-04 1.628E-03 1.758E+00 0.000E+00 0.000E+00
 ETOT  9  -131.36175273441    -1.899E-04 2.415E-03 2.330E-01 0.000E+00 0.000E+00
 ETOT 10  -131.36179101526    -3.828E-05 1.446E-03 2.430E-02 0.000E+00 0.000E+00
 ETOT 11  -131.36180030653    -9.291E-06 1.924E-03 3.757E-02 0.000E+00 0.000E+00
 ETOT 12  -131.36180831363    -8.007E-06 1.271E-03 3.282E-03 0.000E+00 0.000E+00
 ETOT 13  -131.36181087127    -2.558E-06 2.230E-03 1.313E-04 0.000E+00 0.000E+00
 ETOT 14  -131.36181200434    -1.133E-06 1.216E-03 3.373E-05 0.000E+00 0.000E+00
 ETOT 15  -131.36181254670    -5.424E-07 2.671E-03 1.106E-04 0.000E+00 0.000E+00
 ETOT 16  -131.36181282429    -2.776E-07 1.150E-03 3.068E-05 0.000E+00 0.000E+00
 ETOT 17  -131.36181296822    -1.439E-07 2.374E-03 4.416E-06 0.000E+00 0.000E+00
 ETOT 18  -131.36181303861    -7.038E-08 1.057E-03 1.213E-05 0.000E+00 0.000E+00
 ETOT 19  -131.36181307731    -3.871E-08 1.600E-03 1.247E-06 0.000E+00 0.000E+00
 ETOT 20  -131.36181309631    -1.900E-08 9.412E-04 8.051E-06 0.000E+00 0.000E+00
 ETOT 21  -131.36181310719    -1.088E-08 1.574E-03 3.318E-06 0.000E+00 0.000E+00
 ETOT 22  -131.36181311236    -5.167E-09 8.048E-04 1.224E-05 0.000E+00 0.000E+00
 ETOT 23  -131.36181311571    -3.357E-09 1.530E-03 3.629E-06 0.000E+00 0.000E+00
 ETOT 24  -131.36181311667    -9.575E-10 6.751E-04 2.100E-05 0.000E+00 0.000E+00
 ETOT 25  -131.36181311732    -6.444E-10 1.453E-03 1.165E-05 0.000E+00 0.000E+00
 ETOT 26  -131.36181311823    -9.090E-10 6.249E-04 7.343E-06 0.000E+00 0.000E+00
 ETOT 27  -131.36181311832    -9.229E-11 1.106E-03 8.859E-06 0.000E+00 0.000E+00
 ETOT 28  -131.36181311828     3.539E-11 5.690E-04 1.155E-05 0.000E+00 0.000E+00

 At SCF step   28, etot is converged :
  for the second time, diff in etot=  3.539E-11 < toldfe=  1.000E-10

 Cartesian components of stress tensor (hartree/bohr^3)
  sigma(1 1)=  1.98612597E-04  sigma(3 2)=  0.00000000E+00
  sigma(2 2)=  1.98612597E-04  sigma(3 1)=  0.00000000E+00
  sigma(3 3)=  1.98612597E-04  sigma(2 1)=  0.00000000E+00

 Unit cell characteristics :
  acell=  7.6224690964E+00  7.6224690964E+00  7.6224690964E+00
  rprim=  1.0000000000E+00  0.0000000000E+00  0.0000000000E+00
          0.0000000000E+00  1.0000000000E+00  0.0000000000E+00
          0.0000000000E+00  0.0000000000E+00  1.0000000000E+00
  ucvol=  4.4288096718E+02 Bohr^3
  lengths=  7.6224690964E+00  7.6224690964E+00  7.6224690964E+00 Bohr
  angles (23,13,12)=  90.00000000  90.00000000  90.00000000 degrees
 Cartesian coordinates (bohr)
  0.00000000000000E+00  0.00000000000000E+00  0.00000000000000E+00
  3.81123454820000E+00  3.81123454820000E+00  3.81123454820000E+00
  0.00000000000000E+00  3.81123454820000E+00  3.81123454820000E+00
  3.81123454820000E+00  0.00000000000000E+00  3.81123454820000E+00
  3.81123454820000E+00  3.81123454820000E+00  0.00000000000000E+00
 Cartesian forces (hart/bohr); max,rms= 0.00000E+00 0.00000E+00 (free atoms)
  0.00000000000000E+00  0.00000000000000E+00  0.00000000000000E+00
  0.00000000000000E+00  0.00000000000000E+00  0.00000000000000E+00
  0.00000000000000E+00  0.00000000000000E+00  0.00000000000000E+00
  0.00000000000000E+00  0.00000000000000E+00  0.00000000000000E+00
  0.00000000000000E+00  0.00000000000000E+00  0.00000000000000E+00

 At the end of Broyden step  0, total energy= -1.31361813118282E+02 Ha.


 BROYDEN STEP NUMBER   1  ------------------------------------------------------

     iter   Etot(hartree)      deltaE(h)  residm     vres2    diffor    maxfor
 ETOT  1  -131.34594792903    -1.313E+02 4.678E+01 6.078E+02 0.000E+00 0.000E+00
 ETOT  2  -131.34744669096    -1.499E-03 9.905E+00 2.975E+02 0.000E+00 0.000E+00
 ETOT  3  -131.35667632008    -9.230E-03 1.611E-01 6.997E+01 0.000E+00 0.000E+00
 ETOT  4  -131.36273995370    -6.064E-03 9.635E-02 4.388E+00 0.000E+00 0.000E+00
 ETOT  5  -131.36297957091    -2.396E-04 2.910E-02 9.670E-02 0.000E+00 0.000E+00
 ETOT  6  -131.36298780019    -8.229E-06 1.108E-02 1.802E-01 0.000E+00 0.000E+00
 ETOT  7  -131.36300231912    -1.452E-05 6.542E-03 2.180E-02 0.000E+00 0.000E+00
 ETOT  8  -131.36300397468    -1.656E-06 2.064E-03 6.825E-03 0.000E+00 0.000E+00
 ETOT  9  -131.36300454126    -5.666E-07 1.405E-03 8.253E-04 0.000E+00 0.000E+00
 ETOT 10  -131.36300467694    -1.357E-07 5.543E-04 1.687E-05 0.000E+00 0.000E+00
 ETOT 11  -131.36300470553    -2.859E-08 7.336E-04 4.419E-05 0.000E+00 0.000E+00
 ETOT 12  -131.36300472044    -1.490E-08 4.750E-04 3.179E-07 0.000E+00 0.000E+00
 ETOT 13  -131.36300472374    -3.305E-09 7.775E-04 9.036E-06 0.000E+00 0.000E+00
 ETOT 14  -131.36300472615    -2.410E-09 5.030E-04 5.252E-07 0.000E+00 0.000E+00
 ETOT 15  -131.36300472678    -6.280E-10 8.282E-04 8.024E-07 0.000E+00 0.000E+00
 ETOT 16  -131.36300472716    -3.773E-10 5.298E-04 1.514E-08 0.000E+00 0.000E+00
 ETOT 17  -131.36300472727    -1.147E-10 8.666E-04 2.712E-07 0.000E+00 0.000E+00
 ETOT 18  -131.36300472736    -8.515E-11 5.466E-04 9.226E-08 0.000E+00 0.000E+00
 ETOT 19  -131.36300472738    -2.120E-11 8.855E-04 1.560E-07 0.000E+00 0.000E+00

 At SCF step   19, etot is converged :
  for the second time, diff in etot=  2.120E-11 < toldfe=  1.000E-10

 Cartesian components of stress tensor (hartree/bohr^3)
  sigma(1 1)=  1.02824491E-04  sigma(3 2)=  0.00000000E+00
  sigma(2 2)=  1.02824491E-04  sigma(3 1)=  0.00000000E+00
  sigma(3 3)=  1.02824491E-04  sigma(2 1)=  0.00000000E+00

 Unit cell characteristics :
  acell=  7.5770515450E+00  7.5770515450E+00  7.5770515450E+00
  rprim=  1.0000000000E+00  0.0000000000E+00  0.0000000000E+00
          0.0000000000E+00  1.0000000000E+00  0.0000000000E+00
          0.0000000000E+00  0.0000000000E+00  1.0000000000E+00
  ucvol=  4.3501148683E+02 Bohr^3
  lengths=  7.5770515450E+00  7.5770515450E+00  7.5770515450E+00 Bohr
  angles (23,13,12)=  90.00000000  90.00000000  90.00000000 degrees
 Cartesian coordinates (bohr)
  0.00000000000000E+00  0.00000000000000E+00  0.00000000000000E+00
  3.78852577249130E+00  3.78852577249130E+00  3.78852577249130E+00
  0.00000000000000E+00  3.78852577249130E+00  3.78852577249130E+00
  3.78852577249130E+00  0.00000000000000E+00  3.78852577249130E+00
  3.78852577249130E+00  3.78852577249130E+00  0.00000000000000E+00
 Cartesian forces (hart/bohr); max,rms= 0.00000E+00 0.00000E+00 (free atoms)
  0.00000000000000E+00  0.00000000000000E+00  0.00000000000000E+00
  0.00000000000000E+00  0.00000000000000E+00  0.00000000000000E+00
  0.00000000000000E+00  0.00000000000000E+00  0.00000000000000E+00
  0.00000000000000E+00  0.00000000000000E+00  0.00000000000000E+00
  0.00000000000000E+00  0.00000000000000E+00  0.00000000000000E+00

 At the end of Broyden step  1, total energy= -1.31363004727377E+02 Ha.


 BROYDEN STEP NUMBER   2  ------------------------------------------------------

     iter   Etot(hartree)      deltaE(h)  residm     vres2    diffor    maxfor
 ETOT  1  -131.34531202194    -1.313E+02 5.588E+00 6.557E+02 0.000E+00 0.000E+00
 ETOT  2  -131.34790780336    -2.596E-03 5.641E-01 3.020E+02 0.000E+00 0.000E+00
 ETOT  3  -131.35693152004    -9.024E-03 2.111E-02 7.304E+01 0.000E+00 0.000E+00
 ETOT  4  -131.36312307795    -6.192E-03 2.017E-02 4.574E+00 0.000E+00 0.000E+00
 ETOT  5  -131.36337562359    -2.525E-04 1.025E-02 1.591E-01 0.000E+00 0.000E+00
 ETOT  6  -131.36338480095    -9.177E-06 3.985E-03 2.126E-01 0.000E+00 0.000E+00
 ETOT  7  -131.36340065383    -1.585E-05 2.014E-03 2.771E-02 0.000E+00 0.000E+00
 ETOT  8  -131.36340259808    -1.944E-06 7.386E-04 9.806E-03 0.000E+00 0.000E+00
 ETOT  9  -131.36340318786    -5.898E-07 5.250E-04 1.180E-03 0.000E+00 0.000E+00
 ETOT 10  -131.36340331142    -1.236E-07 4.918E-04 2.151E-05 0.000E+00 0.000E+00
 ETOT 11  -131.36340333289    -2.148E-08 4.494E-04 2.050E-05 0.000E+00 0.000E+00
 ETOT 12  -131.36340334145    -8.552E-09 4.224E-04 3.486E-06 0.000E+00 0.000E+00
 ETOT 13  -131.36340334355    -2.105E-09 3.870E-04 6.176E-06 0.000E+00 0.000E+00
 ETOT 14  -131.36340334497    -1.419E-09 3.617E-04 3.187E-07 0.000E+00 0.000E+00
 ETOT 15  -131.36340334531    -3.405E-10 3.301E-04 6.043E-07 0.000E+00 0.000E+00
 ETOT 16  -131.36340334551    -2.036E-10 3.067E-04 4.379E-09 0.000E+00 0.000E+00
 ETOT 17  -131.36340334559    -7.665E-11 2.785E-04 9.134E-09 0.000E+00 0.000E+00
 ETOT 18  -131.36340334563    -3.504E-11 2.574E-04 5.432E-10 0.000E+00 0.000E+00

 At SCF step   18, etot is converged :
  for the second time, diff in etot=  3.504E-11 < toldfe=  1.000E-10

 Cartesian components of stress tensor (hartree/bohr^3)
  sigma(1 1)= -5.57282629E-06  sigma(3 2)=  0.00000000E+00
  sigma(2 2)= -5.57282629E-06  sigma(3 1)=  0.00000000E+00
  sigma(3 3)= -5.57282629E-06  sigma(2 1)=  0.00000000E+00

 Unit cell characteristics :
  acell=  7.5300603336E+00  7.5300603336E+00  7.5300603336E+00
  rprim=  1.0000000000E+00  0.0000000000E+00  0.0000000000E+00
          0.0000000000E+00  1.0000000000E+00  0.0000000000E+00
          0.0000000000E+00  0.0000000000E+00  1.0000000000E+00
  ucvol=  4.2696803998E+02 Bohr^3
  lengths=  7.5300603336E+00  7.5300603336E+00  7.5300603336E+00 Bohr
  angles (23,13,12)=  90.00000000  90.00000000  90.00000000 degrees
 Cartesian coordinates (bohr)
  0.00000000000000E+00  0.00000000000000E+00  0.00000000000000E+00
  3.76503016678167E+00  3.76503016678167E+00  3.76503016678167E+00
  0.00000000000000E+00  3.76503016678167E+00  3.76503016678167E+00
  3.76503016678167E+00  0.00000000000000E+00  3.76503016678167E+00
  3.76503016678167E+00  3.76503016678167E+00  0.00000000000000E+00
 Cartesian forces (hart/bohr); max,rms= 0.00000E+00 0.00000E+00 (free atoms)
  0.00000000000000E+00  0.00000000000000E+00  0.00000000000000E+00
  0.00000000000000E+00  0.00000000000000E+00  0.00000000000000E+00
  0.00000000000000E+00  0.00000000000000E+00  0.00000000000000E+00
  0.00000000000000E+00  0.00000000000000E+00  0.00000000000000E+00
  0.00000000000000E+00  0.00000000000000E+00  0.00000000000000E+00

 At the end of Broyden step  2, total energy= -1.31363403345626E+02 Ha.


 BROYDEN STEP NUMBER   3  ------------------------------------------------------

     iter   Etot(hartree)      deltaE(h)  residm     vres2    diffor    maxfor
 ETOT  1  -131.36336137717    -1.314E+02 2.203E-04 1.618E+00 0.000E+00 0.000E+00
 ETOT  2  -131.36337736071    -1.598E-05 1.820E-04 5.443E-01 0.000E+00 0.000E+00
 ETOT  3  -131.36338823002    -1.087E-05 1.531E-04 2.032E-01 0.000E+00 0.000E+00
 ETOT  4  -131.36340356132    -1.533E-05 1.488E-04 1.392E-02 0.000E+00 0.000E+00
 ETOT  5  -131.36340431736    -7.560E-07 1.248E-04 1.626E-03 0.000E+00 0.000E+00
 ETOT  6  -131.36340436061    -4.325E-08 1.212E-04 1.069E-03 0.000E+00 0.000E+00
 ETOT  7  -131.36340442895    -6.834E-08 1.017E-04 1.177E-04 0.000E+00 0.000E+00
 ETOT  8  -131.36340443599    -7.044E-09 9.882E-05 3.999E-05 0.000E+00 0.000E+00
 ETOT  9  -131.36340443842    -2.427E-09 8.275E-05 4.566E-06 0.000E+00 0.000E+00
 ETOT 10  -131.36340443840     2.157E-11 8.029E-05 5.877E-06 0.000E+00 0.000E+00
 ETOT 11  -131.36340443866    -2.614E-10 6.769E-05 3.369E-07 0.000E+00 0.000E+00
 ETOT 12  -131.36340443869    -3.507E-11 6.506E-05 2.669E-08 0.000E+00 0.000E+00
 ETOT 13  -131.36340443870    -5.912E-12 6.876E-05 4.425E-08 0.000E+00 0.000E+00

 At SCF step   13, etot is converged :
  for the second time, diff in etot=  5.912E-12 < toldfe=  1.000E-10

 Cartesian components of stress tensor (hartree/bohr^3)
  sigma(1 1)=  1.55620094E-07  sigma(3 2)=  0.00000000E+00
  sigma(2 2)=  1.55620094E-07  sigma(3 1)=  0.00000000E+00
  sigma(3 3)=  1.55620094E-07  sigma(2 1)=  0.00000000E+00

 Unit cell characteristics :
  acell=  7.5324337902E+00  7.5324337902E+00  7.5324337902E+00
  rprim=  1.0000000000E+00  0.0000000000E+00  0.0000000000E+00
          0.0000000000E+00  1.0000000000E+00  0.0000000000E+00
          0.0000000000E+00  0.0000000000E+00  1.0000000000E+00
  ucvol=  4.2737190510E+02 Bohr^3
  lengths=  7.5324337902E+00  7.5324337902E+00  7.5324337902E+00 Bohr
  angles (23,13,12)=  90.00000000  90.00000000  90.00000000 degrees
 Cartesian coordinates (bohr)
  0.00000000000000E+00  0.00000000000000E+00  0.00000000000000E+00
  3.76621689508198E+00  3.76621689508198E+00  3.76621689508198E+00
  0.00000000000000E+00  3.76621689508198E+00  3.76621689508198E+00
  3.76621689508198E+00  0.00000000000000E+00  3.76621689508198E+00
  3.76621689508198E+00  3.76621689508198E+00  0.00000000000000E+00
 Cartesian forces (hart/bohr); max,rms= 0.00000E+00 0.00000E+00 (free atoms)
  0.00000000000000E+00  0.00000000000000E+00  0.00000000000000E+00
  0.00000000000000E+00  0.00000000000000E+00  0.00000000000000E+00
  0.00000000000000E+00  0.00000000000000E+00  0.00000000000000E+00
  0.00000000000000E+00  0.00000000000000E+00  0.00000000000000E+00
  0.00000000000000E+00  0.00000000000000E+00  0.00000000000000E+00

 At the end of Broyden step  3, total energy= -1.31363404438697E+02 Ha.


 BROYDEN STEP NUMBER   4  ------------------------------------------------------

     iter   Etot(hartree)      deltaE(h)  residm     vres2    diffor    maxfor
 ETOT  1  -131.36340440697    -1.314E+02 7.356E-05 1.220E-03 0.000E+00 0.000E+00
 ETOT  2  -131.36340441721    -1.024E-08 7.095E-05 4.429E-04 0.000E+00 0.000E+00
 ETOT  3  -131.36340442648    -9.272E-09 5.028E-05 1.635E-04 0.000E+00 0.000E+00
 ETOT  4  -131.36340443875    -1.227E-08 7.157E-05 1.169E-05 0.000E+00 0.000E+00
 ETOT  5  -131.36340443938    -6.216E-10 5.050E-05 1.460E-06 0.000E+00 0.000E+00
 ETOT  6  -131.36340443941    -3.715E-11 7.236E-05 8.527E-07 0.000E+00 0.000E+00
 ETOT  7  -131.36340443947    -5.755E-11 5.079E-05 7.588E-08 0.000E+00 0.000E+00

 At SCF step    7, etot is converged :
  for the second time, diff in etot=  5.755E-11 < toldfe=  1.000E-10

 Cartesian components of stress tensor (hartree/bohr^3)
  sigma(1 1)= -6.34776984E-09  sigma(3 2)=  0.00000000E+00
  sigma(2 2)= -6.34776987E-09  sigma(3 1)=  0.00000000E+00
  sigma(3 3)= -6.34776991E-09  sigma(2 1)=  0.00000000E+00

 Unit cell characteristics :
  acell=  7.5323692530E+00  7.5323692530E+00  7.5323692530E+00
  rprim=  1.0000000000E+00  0.0000000000E+00  0.0000000000E+00
          0.0000000000E+00  1.0000000000E+00  0.0000000000E+00
          0.0000000000E+00  0.0000000000E+00  1.0000000000E+00
  ucvol=  4.2736092016E+02 Bohr^3
  lengths=  7.5323692530E+00  7.5323692530E+00  7.5323692530E+00 Bohr
  angles (23,13,12)=  90.00000000  90.00000000  90.00000000 degrees
 Cartesian coordinates (bohr)
  0.00000000000000E+00  0.00000000000000E+00  0.00000000000000E+00
  3.76618462652381E+00  3.76618462652381E+00  3.76618462652381E+00
  0.00000000000000E+00  3.76618462652381E+00  3.76618462652381E+00
  3.76618462652381E+00  0.00000000000000E+00  3.76618462652381E+00
  3.76618462652381E+00  3.76618462652381E+00  0.00000000000000E+00
 Cartesian forces (hart/bohr); max,rms= 0.00000E+00 0.00000E+00 (free atoms)
  0.00000000000000E+00  0.00000000000000E+00  0.00000000000000E+00
  0.00000000000000E+00  0.00000000000000E+00  0.00000000000000E+00
  0.00000000000000E+00  0.00000000000000E+00  0.00000000000000E+00
  0.00000000000000E+00  0.00000000000000E+00  0.00000000000000E+00
  0.00000000000000E+00  0.00000000000000E+00  0.00000000000000E+00

 At the end of Broyden step  4, total energy= -1.31363404439471E+02 Ha.


 At Broyd/MD step   4, gradients are converged :
  max grad (force/stress) = 6.3478E-07 < tolmxf= 1.0000E-06 ha/bohr (free atoms)

================================================================================

 ----iterations are completed or convergence reached----

 Mean square residual over all n,k,spin=   2.8637E-07; max=  5.0795E-05
   0.0625  0.0625  0.0625    1  4.12742E-06 kpt; spin; max resid(k); each band:
 1.65E-14 5.79E-14 5.63E-14 5.62E-14 9.49E-15 3.23E-14 5.67E-14 5.30E-14
 2.21E-14 2.16E-14 2.03E-14 1.83E-13 2.17E-13 9.03E-14 3.73E-13 1.07E-13
 2.08E-15 2.35E-13 5.88E-14 6.23E-14 4.13E-06
   0.1875  0.0625  0.0625    1  2.21383E-05 kpt; spin; max resid(k); each band:
 1.79E-14 5.89E-14 5.66E-14 5.57E-14 8.30E-15 4.42E-14 5.59E-14 6.79E-14
 2.44E-14 2.02E-14 2.43E-14 3.45E-13 2.61E-13 1.99E-13 2.79E-12 6.39E-13
 9.73E-13 3.47E-13 1.68E-13 6.53E-13 2.21E-05
   0.3125  0.0625  0.0625    1  8.58446E-13 kpt; spin; max resid(k); each band:
 1.85E-14 6.27E-14 5.54E-14 5.52E-14 6.47E-15 5.46E-14 5.75E-14 6.83E-14
 1.31E-14 2.12E-14 3.56E-14 2.26E-13 1.84E-13 2.61E-13 5.77E-13 3.42E-14
 9.15E-14 6.56E-13 2.55E-13 5.29E-14 8.58E-13
   0.4375  0.0625  0.0625    1  5.09316E-13 kpt; spin; max resid(k); each band:
 1.88E-14 6.63E-14 5.47E-14 5.48E-14 5.07E-15 6.16E-14 6.21E-14 7.77E-14
 1.40E-14 1.31E-14 4.78E-14 2.29E-13 1.19E-13 1.67E-13 3.94E-13 4.50E-14
 7.55E-14 1.25E-13 3.29E-13 5.09E-13 3.19E-13
   0.1875  0.1875  0.0625    1  5.07946E-05 kpt; spin; max resid(k); each band:
 1.94E-14 5.86E-14 5.62E-14 5.54E-14 7.12E-15 5.27E-14 7.50E-14 8.88E-14
 3.43E-14 1.91E-14 2.41E-14 3.78E-13 1.41E-13 5.58E-13 3.57E-13 2.14E-13
 3.41E-13 1.69E-13 2.73E-13 1.57E-13 5.08E-05
   0.3125  0.1875  0.0625    1  3.53927E-08 kpt; spin; max resid(k); each band:
 2.08E-14 6.21E-14 5.73E-14 5.49E-14 5.34E-15 5.94E-14 1.54E-13 7.00E-14
 3.18E-14 2.01E-14 2.90E-14 3.54E-13 2.08E-13 1.77E-13 3.68E-13 5.50E-13
 6.41E-13 2.77E-13 1.74E-13 1.26E-13 3.54E-08
   0.4375  0.1875  0.0625    1  1.08252E-11 kpt; spin; max resid(k); each band:
 2.04E-14 6.56E-14 5.66E-14 5.50E-14 4.00E-15 6.70E-14 2.27E-13 8.22E-14
 2.05E-14 2.96E-14 3.37E-14 3.88E-13 2.32E-13 2.25E-13 3.40E-13 7.46E-13
 6.35E-13 2.18E-13 1.71E-13 2.03E-13 1.08E-11
   0.3125  0.3125  0.0625    1  1.85565E-05 kpt; spin; max resid(k); each band:
 2.20E-14 6.13E-14 6.00E-14 5.49E-14 3.66E-15 5.98E-14 8.44E-14 7.31E-14
 4.46E-14 2.42E-14 2.54E-14 4.43E-13 4.51E-13 1.97E-13 4.17E-13 1.58E-13
 4.53E-13 2.59E-13 3.63E-14 7.05E-14 1.86E-05
   0.4375  0.3125  0.0625    1  8.15019E-07 kpt; spin; max resid(k); each band:
 2.18E-14 6.69E-14 6.04E-14 5.42E-14 2.40E-15 6.53E-14 9.14E-14 8.16E-14
 4.16E-14 4.56E-14 1.23E-14 3.39E-13 3.43E-13 1.87E-13 3.00E-13 6.66E-13
 5.09E-13 3.38E-13 1.49E-13 4.58E-13 8.15E-07
   0.4375  0.4375  0.0625    1  2.50750E-07 kpt; spin; max resid(k); each band:
 2.25E-14 6.44E-14 6.37E-14 5.42E-14 1.23E-15 6.73E-14 9.77E-14 8.66E-14
 5.29E-14 5.11E-14 4.36E-15 1.09E-12 3.15E-13 1.17E-12 2.84E-13 3.60E-13
 4.59E-13 1.67E-13 4.08E-14 1.59E-14 2.51E-07
   0.1875  0.1875  0.1875    1  1.85846E-07 kpt; spin; max resid(k); each band:
 2.11E-14 6.05E-14 5.60E-14 5.55E-14 6.02E-15 6.07E-14 6.91E-14 7.09E-14
 2.81E-14 2.99E-14 2.54E-14 2.90E-13 8.43E-14 2.20E-13 2.87E-13 1.33E-12
 1.52E-13 1.32E-14 2.73E-13 1.36E-12 1.86E-07
   0.3125  0.1875  0.1875    1  5.89454E-06 kpt; spin; max resid(k); each band:
 2.26E-14 6.15E-14 5.71E-14 5.58E-14 4.38E-15 6.77E-14 6.09E-14 7.45E-14
 2.23E-14 3.78E-14 2.95E-14 4.44E-13 1.88E-13 1.26E-13 1.68E-13 1.34E-12
 3.26E-13 3.25E-14 2.32E-14 1.62E-13 5.89E-06
   0.4375  0.1875  0.1875    1  1.00804E-09 kpt; spin; max resid(k); each band:
 2.22E-14 6.48E-14 5.66E-14 5.46E-14 3.13E-15 7.33E-14 6.06E-14 8.39E-14
 2.03E-14 4.66E-14 2.95E-14 3.94E-13 1.92E-13 3.19E-13 8.73E-14 5.48E-14
 2.95E-13 7.21E-14 3.87E-14 5.33E-13 1.01E-09
   0.3125  0.3125  0.1875    1  1.75633E-06 kpt; spin; max resid(k); each band:
 2.35E-14 6.29E-14 5.96E-14 5.61E-14 2.96E-15 7.07E-14 8.11E-14 7.07E-14
 2.52E-14 3.75E-14 3.18E-14 1.52E-13 7.68E-13 2.23E-13 2.37E-13 3.05E-13
 6.50E-13 1.75E-13 1.60E-13 2.38E-14 1.76E-06
   0.4375  0.3125  0.1875    1  2.56134E-08 kpt; spin; max resid(k); each band:
 2.38E-14 6.56E-14 5.98E-14 5.47E-14 1.86E-15 6.98E-14 7.52E-14 7.73E-14
 2.33E-14 4.76E-14 2.97E-14 4.24E-13 2.35E-13 2.28E-13 2.98E-13 3.96E-13
 3.07E-13 1.39E-13 1.06E-13 1.43E-13 2.56E-08
   0.4375  0.4375  0.1875    1  7.16761E-07 kpt; spin; max resid(k); each band:
 2.46E-14 6.36E-14 6.39E-14 5.41E-14 9.31E-16 6.06E-14 9.02E-14 7.95E-14
 3.57E-14 5.07E-14 2.04E-14 3.51E-13 6.94E-13 3.54E-13 2.83E-13 3.22E-13
 2.08E-13 1.29E-13 6.06E-14 1.49E-14 7.17E-07
   0.3125  0.3125  0.3125    1  6.07056E-08 kpt; spin; max resid(k); each band:
 2.47E-14 6.09E-14 5.89E-14 5.87E-14 1.86E-15 7.76E-14 7.83E-14 7.34E-14
 3.39E-14 3.02E-14 3.52E-14 1.81E-13 3.46E-13 2.22E-13 1.68E-13 5.14E-13
 3.77E-13 1.67E-13 1.81E-13 2.39E-15 6.07E-08
   0.4375  0.3125  0.3125    1  1.14658E-05 kpt; spin; max resid(k); each band:
 2.55E-14 6.35E-14 6.02E-14 5.88E-14 1.08E-15 7.49E-14 7.93E-14 6.04E-14
 3.09E-14 4.43E-14 3.39E-14 3.84E-13 5.29E-13 2.55E-13 3.62E-13 6.52E-13
 5.32E-13 5.20E-14 1.05E-13 7.53E-13 1.15E-05
   0.4375  0.4375  0.3125    1  3.44947E-06 kpt; spin; max resid(k); each band:
 2.64E-14 6.26E-14 6.28E-14 5.82E-14 5.04E-16 6.63E-14 7.69E-14 6.86E-14
 2.84E-14 3.88E-14 3.06E-14 2.71E-13 4.04E-13 2.33E-13 5.48E-13 3.41E-13
 7.81E-13 8.84E-14 2.46E-14 2.33E-14 3.45E-06
   0.4375  0.4375  0.4375    1  2.25644E-09 kpt; spin; max resid(k); each band:
 2.84E-14 6.15E-14 6.17E-14 6.17E-14 1.63E-16 6.76E-14 6.46E-14 6.45E-14
 3.37E-14 4.64E-14 3.15E-14 4.98E-14 4.60E-13 4.41E-13 6.00E-13 8.51E-13
 2.51E-13 1.22E-14 5.99E-14 1.02E-15 2.26E-09
 reduced coordinates (array xred) for    5 atoms
       0.000000000000      0.000000000000      0.000000000000
       0.500000000000      0.500000000000      0.500000000000
       0.000000000000      0.500000000000      0.500000000000
       0.500000000000      0.000000000000      0.500000000000
       0.500000000000      0.500000000000      0.000000000000
 rms dE/dt=  0.0000E+00; max dE/dt=  0.0000E+00; dE/dt below (all hartree)
    1       0.000000000000      0.000000000000      0.000000000000
    2       0.000000000000      0.000000000000      0.000000000000
    3       0.000000000000      0.000000000000      0.000000000000
    4       0.000000000000      0.000000000000      0.000000000000
    5       0.000000000000      0.000000000000      0.000000000000

 cartesian coordinates (angstrom) at end:
    1      0.00000000000000     0.00000000000000     0.00000000000000
    2      2.01681845949825     2.01681845949825     2.01681845949825
    3      0.00000000000000     2.01681845949825     2.01681845949825
    4      2.01681845949825     0.00000000000000     2.01681845949825
    5      2.01681845949825     2.01681845949825     0.00000000000000

 cartesian forces (hartree/bohr) at end:
    1      0.00000000000000     0.00000000000000     0.00000000000000
    2      0.00000000000000     0.00000000000000     0.00000000000000
    3      0.00000000000000     0.00000000000000     0.00000000000000
    4      0.00000000000000     0.00000000000000     0.00000000000000
    5      0.00000000000000     0.00000000000000     0.00000000000000
 frms,max,avg= 0.0000000E+00 0.0000000E+00   0.000E+00  0.000E+00  0.000E+00 h/b

 cartesian forces (eV/Angstrom) at end:
    1      0.00000000000000     0.00000000000000     0.00000000000000
    2      0.00000000000000     0.00000000000000     0.00000000000000
    3      0.00000000000000     0.00000000000000     0.00000000000000
    4      0.00000000000000     0.00000000000000     0.00000000000000
    5      0.00000000000000     0.00000000000000     0.00000000000000
 frms,max,avg= 0.0000000E+00 0.0000000E+00   0.000E+00  0.000E+00  0.000E+00 e/A
 length scales=  7.532369253048  7.532369253048  7.532369253048 bohr
              =  3.985958135397  3.985958135397  3.985958135397 angstroms
 prteigrs : about to open file perovskite-a0_o_EIG
 Fermi (or HOMO) energy (hartree) =   0.01420   Average Vxc (hartree)=  -0.42443
 Eigenvalues (hartree) for nkpt=  20  k points:
 kpt#   1, nband= 21, wtk=  0.01563, kpt=  0.0625  0.0625  0.0625 (reduced coord)
  -2.01506  -1.17470  -1.17469  -1.17469  -0.88726  -0.59621  -0.57099  -0.57099
  -0.34692  -0.34692  -0.34423  -0.07307  -0.06879  -0.06879  -0.03295  -0.03295
  -0.02361   0.00086   0.00741   0.00741   0.08478
 kpt#   2, nband= 21, wtk=  0.04688, kpt=  0.1875  0.0625  0.0625 (reduced coord)
  -2.01505  -1.17530  -1.17467  -1.17467  -0.88601  -0.59718  -0.57055  -0.56965
  -0.34586  -0.34559  -0.33947  -0.08954  -0.07373  -0.07216  -0.04711  -0.04365
  -0.02705  -0.01902   0.00001   0.00051   0.08608
 kpt#   3, nband= 21, wtk=  0.04688, kpt=  0.3125  0.0625  0.0625 (reduced coord)
  -2.01502  -1.17615  -1.17464  -1.17464  -0.88419  -0.60088  -0.56991  -0.56487
  -0.34366  -0.34264  -0.33457  -0.11322  -0.08126  -0.07909  -0.05935  -0.05778
  -0.03557  -0.03324  -0.00876  -0.00741   0.08801
 kpt#   4, nband= 21, wtk=  0.04688, kpt=  0.4375  0.0625  0.0625 (reduced coord)
  -2.01501  -1.17675  -1.17462  -1.17461  -0.88289  -0.60437  -0.56945  -0.56021
  -0.34226  -0.33968  -0.33185  -0.12971  -0.08629  -0.08490  -0.07184  -0.06305
  -0.04110  -0.03669  -0.01518  -0.01229   0.08951
 kpt#   5, nband= 21, wtk=  0.04688, kpt=  0.1875  0.1875  0.0625 (reduced coord)
  -2.01503  -1.17529  -1.17526  -1.17465  -0.88487  -0.59607  -0.57033  -0.56921
  -0.34740  -0.34466  -0.33532  -0.09911  -0.08311  -0.07510  -0.06278  -0.05249
  -0.03314  -0.02115  -0.00810  -0.00253   0.10483
 kpt#   6, nband= 21, wtk=  0.09375, kpt=  0.3125  0.1875  0.0625 (reduced coord)
  -2.01501  -1.17612  -1.17523  -1.17462  -0.88324  -0.59706  -0.56935  -0.56626
  -0.34662  -0.34256  -0.33346  -0.11692  -0.09298  -0.08379  -0.07667  -0.06204
  -0.04029  -0.02315  -0.01746  -0.00624   0.10575
 kpt#   7, nband= 21, wtk=  0.09375, kpt=  0.4375  0.1875  0.0625 (reduced coord)
  -2.01499  -1.17671  -1.17520  -1.17459  -0.88206  -0.59914  -0.56855  -0.56256
  -0.34538  -0.33899  -0.33511  -0.13155  -0.09854  -0.09174  -0.08458  -0.06601
  -0.03812  -0.02895  -0.02156  -0.01167   0.10698
 kpt#   8, nband= 21, wtk=  0.04688, kpt=  0.3125  0.3125  0.0625 (reduced coord)
  -2.01499  -1.17608  -1.17605  -1.17458  -0.88186  -0.59273  -0.56930  -0.56611
  -0.34820  -0.34271  -0.33409  -0.12415  -0.10752  -0.10430  -0.07926  -0.07156
  -0.04216  -0.02785  -0.01803   0.00184   0.12672
 kpt#   9, nband= 21, wtk=  0.09375, kpt=  0.4375  0.3125  0.0625 (reduced coord)
  -2.01497  -1.17665  -1.17603  -1.17456  -0.88087  -0.59111  -0.56806  -0.56552
  -0.34785  -0.34353  -0.33515  -0.13433  -0.11840  -0.11195  -0.08398  -0.07508
  -0.04121  -0.02769  -0.01985   0.00437   0.12872
 kpt#  10, nband= 21, wtk=  0.04688, kpt=  0.4375  0.4375  0.0625 (reduced coord)
  -2.01496  -1.17662  -1.17661  -1.17454  -0.88001  -0.58476  -0.56852  -0.56733
  -0.34878  -0.34756  -0.33451  -0.13955  -0.12935  -0.12463  -0.08352  -0.08261
  -0.04801  -0.01865  -0.01506   0.01129   0.14341
 kpt#  11, nband= 21, wtk=  0.01563, kpt=  0.1875  0.1875  0.1875 (reduced coord)
  -2.01502  -1.17527  -1.17523  -1.17523  -0.88383  -0.59377  -0.56948  -0.56948
  -0.34874  -0.34874  -0.33059  -0.10824  -0.08462  -0.08462  -0.06335  -0.06335
  -0.05172  -0.01333  -0.00829  -0.00829   0.11577
 kpt#  12, nband= 21, wtk=  0.04688, kpt=  0.3125  0.1875  0.1875 (reduced coord)
  -2.01499  -1.17608  -1.17522  -1.17520  -0.88233  -0.59287  -0.56826  -0.56720
  -0.35072  -0.34846  -0.33048  -0.12064  -0.09918  -0.08726  -0.07763  -0.07018
  -0.05574  -0.01644  -0.01177  -0.00941   0.11781
 kpt#  13, nband= 21, wtk=  0.04688, kpt=  0.4375  0.1875  0.1875 (reduced coord)
  -2.01498  -1.17667  -1.17519  -1.17517  -0.88126  -0.59384  -0.56738  -0.56372
  -0.35218  -0.34425  -0.33478  -0.13270  -0.10470  -0.09065  -0.08892  -0.07271
  -0.05103  -0.02181  -0.01397  -0.01329   0.11947
 kpt#  14, nband= 21, wtk=  0.04688, kpt=  0.3125  0.3125  0.1875 (reduced coord)
  -2.01497  -1.17605  -1.17603  -1.17517  -0.88104  -0.58787  -0.56789  -0.56620
  -0.35337  -0.35316  -0.33331  -0.12548  -0.10789  -0.10178  -0.08188  -0.07312
  -0.06469  -0.01864  -0.00988  -0.00026   0.13434
 kpt#  15, nband= 21, wtk=  0.09375, kpt=  0.4375  0.3125  0.1875 (reduced coord)
  -2.01496  -1.17662  -1.17601  -1.17515  -0.88011  -0.58571  -0.56647  -0.56507
  -0.35652  -0.35149  -0.33913  -0.13437  -0.11301  -0.10882  -0.08670  -0.07471
  -0.06331  -0.01838  -0.01169   0.00363   0.13687
 kpt#  16, nband= 21, wtk=  0.04688, kpt=  0.4375  0.4375  0.1875 (reduced coord)
  -2.01494  -1.17659  -1.17659  -1.17512  -0.87929  -0.57921  -0.56670  -0.56573
  -0.35654  -0.35619  -0.34520  -0.13917  -0.12452  -0.11288  -0.08263  -0.07793
  -0.07143  -0.01195  -0.00891   0.01178   0.14954
 kpt#  17, nband= 21, wtk=  0.01563, kpt=  0.3125  0.3125  0.3125 (reduced coord)
  -2.01495  -1.17602  -1.17599  -1.17599  -0.87987  -0.58130  -0.56582  -0.56582
  -0.36006  -0.36006  -0.34032  -0.12624  -0.10820  -0.10820  -0.09296  -0.07383
  -0.07383  -0.00662  -0.00662   0.00227   0.14664
 kpt#  18, nband= 21, wtk=  0.04688, kpt=  0.4375  0.3125  0.3125 (reduced coord)
  -2.01494  -1.17658  -1.17598  -1.17596  -0.87903  -0.57750  -0.56455  -0.56431
  -0.36487  -0.36056  -0.34915  -0.13495  -0.11289  -0.10829  -0.09777  -0.07372
  -0.07138  -0.00771  -0.00018   0.00579   0.14937
 kpt#  19, nband= 21, wtk=  0.04688, kpt=  0.4375  0.4375  0.3125 (reduced coord)
  -2.01492  -1.17655  -1.17655  -1.17594  -0.87825  -0.57092  -0.56402  -0.56345
  -0.36745  -0.36623  -0.35921  -0.13978  -0.12433  -0.10898  -0.09132  -0.07374
  -0.07289   0.00075   0.00247   0.01274   0.15900
 kpt#  20, nband= 21, wtk=  0.01563, kpt=  0.4375  0.4375  0.4375 (reduced coord)
  -2.01491  -1.17652  -1.17652  -1.17652  -0.87751  -0.56451  -0.56202  -0.56202
  -0.37308  -0.37308  -0.36970  -0.14410  -0.12418  -0.12418  -0.07751  -0.07212
  -0.07212   0.01168   0.01168   0.01420   0.16659
 Total charge density [el/Bohr^3]
,     Maximum=    1.2985E+00  at reduced coord.    0.5000    0.5000    0.5833
,Next maximum=    1.2985E+00  at reduced coord.    0.5000    0.5833    0.5000
,     Minimum=    8.6711E-05  at reduced coord.    0.0000    0.0000    0.0000
,Next minimum=    2.4963E-04  at reduced coord.    0.0139    0.0000    0.0000

--------------------------------------------------------------------------------
 Components of total free energy (in Hartree) :

    Kinetic energy  =  6.02708451353632E+01
    Hartree energy  =  2.90456222585488E+01
    XC energy       = -2.14054157512895E+01
    Ewald energy    = -1.04095301943210E+02
    PspCore energy  =  1.47046596102944E+01
    Loc. psp. energy= -5.96850592571283E+01
    NL   psp  energy= -5.01987544920497E+01
    >>>>>>>>> Etotal= -1.31363404439471E+02

 Other information on the energy :
    Total energy(eV)= -3.57458002335887E+03 ; Band energy (Ha)=  -1.9478167694E+01
--------------------------------------------------------------------------------

 Cartesian components of stress tensor (hartree/bohr^3)
  sigma(1 1)= -6.34776984E-09  sigma(3 2)=  0.00000000E+00
  sigma(2 2)= -6.34776987E-09  sigma(3 1)=  0.00000000E+00
  sigma(3 3)= -6.34776991E-09  sigma(2 1)=  0.00000000E+00

-Cartesian components of stress tensor (GPa)         [Pressure=  1.8676E-04 GPa]
- sigma(1 1)= -1.86757805E-04  sigma(3 2)=  0.00000000E+00
- sigma(2 2)= -1.86757806E-04  sigma(3 1)=  0.00000000E+00
- sigma(3 3)= -1.86757807E-04  sigma(2 1)=  0.00000000E+00

== END DATASET(S) ==============================================================
================================================================================
  
 -outvars: echo values of variables after computation  --------
     acell    7.5323692530E+00  7.5323692530E+00  7.5323692530E+00 Bohr
       amu    1.37327000E+02  4.78800000E+01  1.59994000E+01
    diemac    1.20000000E+01
   dilatmx    1.20000000E+00
      ecut    6.30000000E+01 Hartree
    ecutsm    3.00000000E+00 Hartree
    etotal   -1.3136340444E+02
     fcart    0.0000000000E+00  0.0000000000E+00  0.0000000000E+00
              0.0000000000E+00  0.0000000000E+00  0.0000000000E+00
              0.0000000000E+00  0.0000000000E+00  0.0000000000E+00
              0.0000000000E+00  0.0000000000E+00  0.0000000000E+00
              0.0000000000E+00  0.0000000000E+00  0.0000000000E+00
    ionmov         2
       ixc        23
       kpt    6.25000000E-02  6.25000000E-02  6.25000000E-02
              1.87500000E-01  6.25000000E-02  6.25000000E-02
              3.12500000E-01  6.25000000E-02  6.25000000E-02
              4.37500000E-01  6.25000000E-02  6.25000000E-02
              1.87500000E-01  1.87500000E-01  6.25000000E-02
              3.12500000E-01  1.87500000E-01  6.25000000E-02
              4.37500000E-01  1.87500000E-01  6.25000000E-02
              3.12500000E-01  3.12500000E-01  6.25000000E-02
              4.37500000E-01  3.12500000E-01  6.25000000E-02
              4.37500000E-01  4.37500000E-01  6.25000000E-02
              1.87500000E-01  1.87500000E-01  1.87500000E-01
              3.12500000E-01  1.87500000E-01  1.87500000E-01
              4.37500000E-01  1.87500000E-01  1.87500000E-01
              3.12500000E-01  3.12500000E-01  1.87500000E-01
              4.37500000E-01  3.12500000E-01  1.87500000E-01
              4.37500000E-01  4.37500000E-01  1.87500000E-01
              3.12500000E-01  3.12500000E-01  3.12500000E-01
              4.37500000E-01  3.12500000E-01  3.12500000E-01
              4.37500000E-01  4.37500000E-01  3.12500000E-01
              4.37500000E-01  4.37500000E-01  4.37500000E-01
   kptrlen    6.09797528E+01
    kptopt         1
  kptrlatt    8  0  0   0  8  0   0  0  8
P    mkmem         2
     natom         5
     nband        21
     ngfft        72      72      72
      nkpt        20
     nstep        35
      nsym        48
     ntime        30
    ntypat         3
       occ    2.000000  2.000000  2.000000  2.000000  2.000000  2.000000
              2.000000  2.000000  2.000000  2.000000  2.000000  2.000000
              2.000000  2.000000  2.000000  2.000000  2.000000  2.000000
              2.000000  2.000000  0.000000
   optcell         2
    prtden         0
     prtwf         0
    shiftk    5.00000000E-01  5.00000000E-01  5.00000000E-01
   spgroup       221
    strten   -6.3477698445E-09 -6.3477698653E-09 -6.3477699139E-09
              0.0000000000E+00  0.0000000000E+00  0.0000000000E+00
    symrel    1  0  0   0  1  0   0  0  1      -1  0  0   0 -1  0   0  0 -1
             -1  0  0   0  1  0   0  0 -1       1  0  0   0 -1  0   0  0  1
             -1  0  0   0 -1  0   0  0  1       1  0  0   0  1  0   0  0 -1
              1  0  0   0 -1  0   0  0 -1      -1  0  0   0  1  0   0  0  1
              0  1  0   1  0  0   0  0  1       0 -1  0  -1  0  0   0  0 -1
              0 -1  0   1  0  0   0  0 -1       0  1  0  -1  0  0   0  0  1
              0 -1  0  -1  0  0   0  0  1       0  1  0   1  0  0   0  0 -1
              0  1  0  -1  0  0   0  0 -1       0 -1  0   1  0  0   0  0  1
              0  0  1   1  0  0   0  1  0       0  0 -1  -1  0  0   0 -1  0
              0  0 -1   1  0  0   0 -1  0       0  0  1  -1  0  0   0  1  0
              0  0 -1  -1  0  0   0  1  0       0  0  1   1  0  0   0 -1  0
              0  0  1  -1  0  0   0 -1  0       0  0 -1   1  0  0   0  1  0
              1  0  0   0  0  1   0  1  0      -1  0  0   0  0 -1   0 -1  0
             -1  0  0   0  0  1   0 -1  0       1  0  0   0  0 -1   0  1  0
             -1  0  0   0  0 -1   0  1  0       1  0  0   0  0  1   0 -1  0
              1  0  0   0  0 -1   0 -1  0      -1  0  0   0  0  1   0  1  0
              0  1  0   0  0  1   1  0  0       0 -1  0   0  0 -1  -1  0  0
              0 -1  0   0  0  1  -1  0  0       0  1  0   0  0 -1   1  0  0
              0 -1  0   0  0 -1   1  0  0       0  1  0   0  0  1  -1  0  0
              0  1  0   0  0 -1  -1  0  0       0 -1  0   0  0  1   1  0  0
              0  0  1   0  1  0   1  0  0       0  0 -1   0 -1  0  -1  0  0
              0  0 -1   0  1  0  -1  0  0       0  0  1   0 -1  0   1  0  0
              0  0 -1   0 -1  0   1  0  0       0  0  1   0  1  0  -1  0  0
              0  0  1   0 -1  0  -1  0  0       0  0 -1   0  1  0   1  0  0
    toldfe    1.00000000E-10 Hartree
    tolmxf    1.00000000E-06
     typat    1  2  3  3  3
       wtk      0.01563    0.04688    0.04688    0.04688    0.04688    0.09375
                0.09375    0.04688    0.09375    0.04688    0.01563    0.04688
                0.04688    0.04688    0.09375    0.04688    0.01563    0.04688
                0.04688    0.01563
    xangst    0.0000000000E+00  0.0000000000E+00  0.0000000000E+00
              1.9929790677E+00  1.9929790677E+00  1.9929790677E+00
              0.0000000000E+00  1.9929790677E+00  1.9929790677E+00
              1.9929790677E+00  0.0000000000E+00  1.9929790677E+00
              1.9929790677E+00  1.9929790677E+00  0.0000000000E+00
     xcart    0.0000000000E+00  0.0000000000E+00  0.0000000000E+00
              3.7661846265E+00  3.7661846265E+00  3.7661846265E+00
              0.0000000000E+00  3.7661846265E+00  3.7661846265E+00
              3.7661846265E+00  0.0000000000E+00  3.7661846265E+00
              3.7661846265E+00  3.7661846265E+00  0.0000000000E+00
      xred    0.0000000000E+00  0.0000000000E+00  0.0000000000E+00
              5.0000000000E-01  5.0000000000E-01  5.0000000000E-01
              0.0000000000E+00  5.0000000000E-01  5.0000000000E-01
              5.0000000000E-01  0.0000000000E+00  5.0000000000E-01
              5.0000000000E-01  5.0000000000E-01  0.0000000000E+00
     znucl     56.00000   22.00000    8.00000

================================================================================


- Timing analysis has been suppressed with timopt=0



================================================================================

 Suggested references for the acknowledgment of ABINIT usage.

 The users of ABINIT have little formal obligations with respect to the ABINIT group
 (those specified in the GNU General Public License, http://www.gnu.org/copyleft/gpl.txt).
 However, it is common practice in the scientific literature,
 to acknowledge the efforts of people that have made the research possible.
 In this spirit, please find below suggested citations of work written by ABINIT developers,
 corresponding to implementations inside of ABINIT that you have used in the present run.
 Note also that it will be of great value to readers of publications presenting these results,
 to read papers enabling them to understand the theoretical formalism and details
 of the ABINIT implementation.
 For information on why they are suggested, see also http://www.abinit.org/about/?text=acknowledgments.

 [1] Ab initio pseudopotentials for electronic structure calculations of poly-atomic systems, 
 using density-functional theory.
 M. Fuchs, M. Scheffler, Comput. Phys. Commun. 119, 67 (1999).
 Comment : Some pseudopotential generated using the FHI code were used.

 [2] A brief introduction to the ABINIT software package.
 X. Gonze, G.-M. Rignanese, M. Verstraete, J.-M. Beuken, Y. Pouillon, R. Caracas, F. Jollet,
 M. Torrent, G. Zerah, M. Mikami, Ph. Ghosez, M. Veithen, J.-Y. Raty, V. Olevano, F. Bruneval,
 L. Reining, R. Godby, G. Onida, D.R. Hamann, and D.C. Allan.
 Z. Kristallogr. 220, 558-562 (2005).
 Comment : the second generic paper describing the ABINIT project. Note that this paper
 should be cited, especially if you are using the GW part of ABINIT, as the authors
 of this part are not in the list of authors of the first paper.
 The .pdf of the latter paper is available at http://www.abinit.org/about/zfk_0505-06_558-562.pdf.
 Note that it should not redistributed (Copyright by Oldenburg Wissenshaftverlag,
 the licence allows the authors to put it on the Web).

 [3] First-principles computation of material properties : the ABINIT software project. 
 X. Gonze, J.-M. Beuken, R. Caracas, F. Detraux, M. Fuchs, G.-M. Rignanese, L. Sindic,
 M. Verstraete, G. Zerah, F. Jollet, M. Torrent, A. Roy, M. Mikami, Ph. Ghosez, J.-Y. Raty, D.C. Allan.
 Computational Materials Science 25, 478-492 (2002). http://dx.doi.org/10.1016/S0927-0256(02)00325-7
 Comment : the original paper describing the ABINIT project.


 And optionally :

 [4] Fast radix 2, 3, 4 and 5 kernels for Fast Fourier Transformations
 on computers with overlapping multiply-add instructions.
 S. Goedecker, SIAM J. on Scientific Computing 18, 1605 (1997).

 [5] Iterative minimization techniques for ab initio total-energy calculations:
 molecular dynamics and conjugate gradients.
 M.C. Payne, M.P. Teter, D.C. Allan, T.A. Arias and J.D. Joannopoulos, Rev. Mod. Phys. 64, 1045 (1992).
-
- Proc.   0 individual time (sec): cpu=        591.5  wall=        591.5

================================================================================

 Calculation completed.
.Delivered    2 WARNINGs and   6 COMMENTs to log file.
+Overall time at end (sec) : cpu=       9463.1  wall=       9463.2
