
.Version 5.6.2  of ABINIT 
.(sequential version, prepared for a ia64_linux_intel10.1 computer) 

.Copyright (C) 1998-2008 ABINIT group . 
 ABINIT comes with ABSOLUTELY NO WARRANTY.
 It is free software, and you are welcome to redistribute it
 under certain conditions (GNU General Public License,
 see ~abinit/COPYING or http://www.gnu.org/copyleft/gpl.txt).

 ABINIT is a project of the Universite Catholique de Louvain,
 Corning Inc. and other collaborators, see ~abinit/doc/developers/contributors.txt .
 Please read ~abinit/doc/users/acknowledgments.html for suggested
 acknowledgments of the ABINIT effort.
 For more information, see http://www.abinit.org .

.Starting date : Fri 19 Sep 2008.
  
- input  file    -> perovskite-X.in
- output file    -> perovskite-X.out
- root for input  files -> perovskite-Gamma_o
- root for output files -> perovskite-X_o


 DATASET    1 : space group Pm -3 m (#221); Bravais cP (primitive cubic)
================================================================================
 Values of the parameters that define the memory need for DATASET  1 (RF).
   intxc =         0    iscf =         5 xclevel =         1  lmnmax =         6
   lnmax =         6   mband =        22  mffmem =         1   mgfft =        45
P  mkmem =       512  mkqmem =       512  mk1mem =       512 mpssoang=         4
     mpw =      5040  mqgrid =      3001   natom =         5    nfft =     91125
    nkpt =       512  nloalg =         4  nspden =         1 nspinor =         1
  nsppol =         1    nsym =        48  n1xccc =         0  ntypat =         3
  occopt =         1
================================================================================
P This job should need less than                    2704.806 Mbytes of memory.
  Rough estimation (10% accuracy) of disk space for files :
  WF disk file :    866.252 Mbytes ; DEN or POT disk file :      0.697 Mbytes.
================================================================================

 -outvars: echo values of preprocessed input variables --------
     acell    7.4644182249E+00  7.4644182249E+00  7.4644182249E+00 Bohr
       amu    2.07200000E+02  4.78800000E+01  1.59994000E+01
    diemac    9.00000000E+00
      ecut    4.00000000E+01 Hartree
    irdwfk         1
      iscf         5
       ixc         3
    jdtset      1
       kpt    6.25000000E-02  6.25000000E-02  6.25000000E-02
              1.87500000E-01  6.25000000E-02  6.25000000E-02
              3.12500000E-01  6.25000000E-02  6.25000000E-02
              4.37500000E-01  6.25000000E-02  6.25000000E-02
             -4.37500000E-01  6.25000000E-02  6.25000000E-02
             -3.12500000E-01  6.25000000E-02  6.25000000E-02
             -1.87500000E-01  6.25000000E-02  6.25000000E-02
             -6.25000000E-02  6.25000000E-02  6.25000000E-02
              6.25000000E-02  1.87500000E-01  6.25000000E-02
              1.87500000E-01  1.87500000E-01  6.25000000E-02
              3.12500000E-01  1.87500000E-01  6.25000000E-02
              4.37500000E-01  1.87500000E-01  6.25000000E-02
             -4.37500000E-01  1.87500000E-01  6.25000000E-02
             -3.12500000E-01  1.87500000E-01  6.25000000E-02
             -1.87500000E-01  1.87500000E-01  6.25000000E-02
             -6.25000000E-02  1.87500000E-01  6.25000000E-02
              6.25000000E-02  3.12500000E-01  6.25000000E-02
              1.87500000E-01  3.12500000E-01  6.25000000E-02
              3.12500000E-01  3.12500000E-01  6.25000000E-02
              4.37500000E-01  3.12500000E-01  6.25000000E-02
             -4.37500000E-01  3.12500000E-01  6.25000000E-02
             -3.12500000E-01  3.12500000E-01  6.25000000E-02
             -1.87500000E-01  3.12500000E-01  6.25000000E-02
             -6.25000000E-02  3.12500000E-01  6.25000000E-02
              6.25000000E-02  4.37500000E-01  6.25000000E-02
              1.87500000E-01  4.37500000E-01  6.25000000E-02
              3.12500000E-01  4.37500000E-01  6.25000000E-02
              4.37500000E-01  4.37500000E-01  6.25000000E-02
             -4.37500000E-01  4.37500000E-01  6.25000000E-02
             -3.12500000E-01  4.37500000E-01  6.25000000E-02
             -1.87500000E-01  4.37500000E-01  6.25000000E-02
             -6.25000000E-02  4.37500000E-01  6.25000000E-02
              6.25000000E-02 -4.37500000E-01  6.25000000E-02
              1.87500000E-01 -4.37500000E-01  6.25000000E-02
              3.12500000E-01 -4.37500000E-01  6.25000000E-02
              4.37500000E-01 -4.37500000E-01  6.25000000E-02
             -4.37500000E-01 -4.37500000E-01  6.25000000E-02
             -3.12500000E-01 -4.37500000E-01  6.25000000E-02
             -1.87500000E-01 -4.37500000E-01  6.25000000E-02
             -6.25000000E-02 -4.37500000E-01  6.25000000E-02
              6.25000000E-02 -3.12500000E-01  6.25000000E-02
              1.87500000E-01 -3.12500000E-01  6.25000000E-02
              3.12500000E-01 -3.12500000E-01  6.25000000E-02
              4.37500000E-01 -3.12500000E-01  6.25000000E-02
             -4.37500000E-01 -3.12500000E-01  6.25000000E-02
             -3.12500000E-01 -3.12500000E-01  6.25000000E-02
             -1.87500000E-01 -3.12500000E-01  6.25000000E-02
             -6.25000000E-02 -3.12500000E-01  6.25000000E-02
              6.25000000E-02 -1.87500000E-01  6.25000000E-02
              1.87500000E-01 -1.87500000E-01  6.25000000E-02
                       outvar1 : prtvol=0, do not print more k-points.
   kptrlen    5.97153458E+01
    kptopt         3
  kptrlatt    8  0  0   0  8  0   0  0  8
P    mkmem       512
P   mkqmem       512
P   mk1mem       512
     natom         5
     nband        22
    ndtset         1
     ngfft        45      45      45
      nkpt       512
      nqpt         1
     nstep        70
      nsym        48
    ntypat         3
       occ    2.000000  2.000000  2.000000  2.000000  2.000000  2.000000
              2.000000  2.000000  2.000000  2.000000  2.000000  2.000000
              2.000000  2.000000  2.000000  2.000000  2.000000  2.000000
              2.000000  2.000000  2.000000  2.000000
 optdriver         1
       qpt    5.00000000E-01  0.00000000E+00  0.00000000E+00
   rfatpol         1       5
     rfdir         1       1       1
    rfphon         1
    shiftk    5.00000000E-01  5.00000000E-01  5.00000000E-01
   spgroup       221
    symrel    1  0  0   0  1  0   0  0  1      -1  0  0   0 -1  0   0  0 -1
             -1  0  0   0  1  0   0  0 -1       1  0  0   0 -1  0   0  0  1
             -1  0  0   0 -1  0   0  0  1       1  0  0   0  1  0   0  0 -1
              1  0  0   0 -1  0   0  0 -1      -1  0  0   0  1  0   0  0  1
              0  1  0   1  0  0   0  0  1       0 -1  0  -1  0  0   0  0 -1
              0 -1  0   1  0  0   0  0 -1       0  1  0  -1  0  0   0  0  1
              0 -1  0  -1  0  0   0  0  1       0  1  0   1  0  0   0  0 -1
              0  1  0  -1  0  0   0  0 -1       0 -1  0   1  0  0   0  0  1
              0  0  1   1  0  0   0  1  0       0  0 -1  -1  0  0   0 -1  0
              0  0 -1   1  0  0   0 -1  0       0  0  1  -1  0  0   0  1  0
              0  0 -1  -1  0  0   0  1  0       0  0  1   1  0  0   0 -1  0
              0  0  1  -1  0  0   0 -1  0       0  0 -1   1  0  0   0  1  0
              1  0  0   0  0  1   0  1  0      -1  0  0   0  0 -1   0 -1  0
             -1  0  0   0  0  1   0 -1  0       1  0  0   0  0 -1   0  1  0
             -1  0  0   0  0 -1   0  1  0       1  0  0   0  0  1   0 -1  0
              1  0  0   0  0 -1   0 -1  0      -1  0  0   0  0  1   0  1  0
              0  1  0   0  0  1   1  0  0       0 -1  0   0  0 -1  -1  0  0
              0 -1  0   0  0  1  -1  0  0       0  1  0   0  0 -1   1  0  0
              0 -1  0   0  0 -1   1  0  0       0  1  0   0  0  1  -1  0  0
              0  1  0   0  0 -1  -1  0  0       0 -1  0   0  0  1   1  0  0
              0  0  1   0  1  0   1  0  0       0  0 -1   0 -1  0  -1  0  0
              0  0 -1   0  1  0  -1  0  0       0  0  1   0 -1  0   1  0  0
              0  0 -1   0 -1  0   1  0  0       0  0  1   0  1  0  -1  0  0
              0  0  1   0 -1  0  -1  0  0       0  0 -1   0  1  0   1  0  0
    tolvrs    1.00000000E-08
     typat    1  2  3  3  3
       wtk      0.00195    0.00195    0.00195    0.00195    0.00195    0.00195
                0.00195    0.00195    0.00195    0.00195    0.00195    0.00195
                0.00195    0.00195    0.00195    0.00195    0.00195    0.00195
                0.00195    0.00195    0.00195    0.00195    0.00195    0.00195
                0.00195    0.00195    0.00195    0.00195    0.00195    0.00195
                0.00195    0.00195    0.00195    0.00195    0.00195    0.00195
                0.00195    0.00195    0.00195    0.00195    0.00195    0.00195
                0.00195    0.00195    0.00195    0.00195    0.00195    0.00195
                0.00195    0.00195
                outvar1 : prtvol=0, do not print more k-points.
    xangst    0.0000000000E+00  0.0000000000E+00  0.0000000000E+00
              1.9750000000E+00  1.9750000000E+00  1.9750000000E+00
              0.0000000000E+00  1.9750000000E+00  1.9750000000E+00
              1.9750000000E+00  0.0000000000E+00  1.9750000000E+00
              1.9750000000E+00  1.9750000000E+00  0.0000000000E+00
     xcart    0.0000000000E+00  0.0000000000E+00  0.0000000000E+00
              3.7322091124E+00  3.7322091124E+00  3.7322091124E+00
              0.0000000000E+00  3.7322091124E+00  3.7322091124E+00
              3.7322091124E+00  0.0000000000E+00  3.7322091124E+00
              3.7322091124E+00  3.7322091124E+00  0.0000000000E+00
      xred    0.0000000000E+00  0.0000000000E+00  0.0000000000E+00
              5.0000000000E-01  5.0000000000E-01  5.0000000000E-01
              0.0000000000E+00  5.0000000000E-01  5.0000000000E-01
              5.0000000000E-01  0.0000000000E+00  5.0000000000E-01
              5.0000000000E-01  5.0000000000E-01  0.0000000000E+00
     znucl     82.00000   22.00000    8.00000

================================================================================

 chkinp: Checking input parameters for consistency, jdtset= 1.

================================================================================
== DATASET  1 ==================================================================

 Real(R)+Recip(G) space primitive vectors, cartesian coordinates (Bohr,Bohr^-1):
 R(1)=  7.4644182  0.0000000  0.0000000  G(1)=  0.1339689  0.0000000  0.0000000
 R(2)=  0.0000000  7.4644182  0.0000000  G(2)=  0.0000000  0.1339689  0.0000000
 R(3)=  0.0000000  0.0000000  7.4644182  G(3)=  0.0000000  0.0000000  0.1339689
 Unit cell volume ucvol=  4.1589902E+02 bohr^3
 Angles (23,13,12)=  9.00000000E+01  9.00000000E+01  9.00000000E+01 degrees
 setup1 : take into account q-point for computing boxcut.

 getcut: wavevector=  0.5000  0.0000  0.0000  ngfft=  45  45  45
         ecut(hartree)=     40.000   => boxcut(ratio)=   2.02338

--- Pseudopotential description ------------------------------------------------
- pspini: atom type   1  psp file is pot_A
- pspatm: opening atomic psp file    pot_A
 (Xe+4f14)+6s1.8 5d10 6p0.2 5f0.05;rcs=rcd=2.0(exnc11),rcp=2.0(26),rcf=1.3(11) no chem-hard; ecut 19/25
  82.00000  14.00000    960808                znucl, zion, pspdat
    4    3    3    3      2001   0.00000      pspcod,pspxc,lmax,lloc,mmax,r2well
    0   0.000   0.000    2   2.0042666        l,e99.0,e99.9,nproj,rcpsp
   0.00000000   0.00000000   0.00000000   0.00000000     rms, ekb1, ekb2, epsatm
    1   0.000   0.000    2   2.0042666        l,e99.0,e99.9,nproj,rcpsp
   0.00000000   0.00000000   0.00000000   0.00000000     rms, ekb1, ekb2, epsatm
    2   0.000   0.000    2   2.0042666        l,e99.0,e99.9,nproj,rcpsp
   0.00000000   0.00000000   0.00000000   0.00000000     rms, ekb1, ekb2, epsatm
    3   0.000   0.000    0   1.2991516        l,e99.0,e99.9,nproj,rcpsp
   0.00000000   0.00000000   0.00000000   0.00000000     rms, ekb1, ekb2, epsatm
    0.00000000000000    0.00000000000000    0.00000000000000   rchrg,fchrg,qchrg
 pspatm: epsatm=   26.97912547
         --- l  ekb(1:nproj) -->
             0    4.600411    3.774203
             1    3.392405    3.894354
             2   -5.902586    0.629658
 pspatm: atomic psp has been read  and splines computed

- pspini: atom type   2  psp file is pot_B
- pspatm: opening atomic psp file    pot_B
 Titane.ion 3s2.3p6.4s0.3d2 rcd=1.65, rcs=rc0=1.25, ecut 32/54
  22.00000  12.00000    940000                znucl, zion, pspdat
    4    3    2    2      2001   0.00000      pspcod,pspxc,lmax,lloc,mmax,r2well
    0   0.000   0.000    2   1.2533577        l,e99.0,e99.9,nproj,rcpsp
   0.00000000   0.00000000   0.00000000   0.00000000     rms, ekb1, ekb2, epsatm
    1   0.000   0.000    2   1.2533577        l,e99.0,e99.9,nproj,rcpsp
   0.00000000   0.00000000   0.00000000   0.00000000     rms, ekb1, ekb2, epsatm
    2   0.000   0.000    0   1.6491622        l,e99.0,e99.9,nproj,rcpsp
   0.00000000   0.00000000   0.00000000   0.00000000     rms, ekb1, ekb2, epsatm
    0.00000000000000    0.00000000000000    0.00000000000000   rchrg,fchrg,qchrg
 pspatm: epsatm=    4.67708954
         --- l  ekb(1:nproj) -->
             0    9.517316   -2.344682
             1    5.011406   -0.741179
 pspatm: atomic psp has been read  and splines computed

- pspini: atom type   3  psp file is pot_O
- pspatm: opening atomic psp file    pot_O
 Compromise psp for oxygen with rc=1.5 ec=25 double reference
   8.00000   6.00000    980710                znucl, zion, pspdat
    5    3    1    1       600   0.00000      pspcod,pspxc,lmax,lloc,mmax,r2well
   0.000   0.031                              r1 and al (Hamman grid)
    0   0.000   0.000    2   1.4915765        l,e99.0,e99.9,nproj,rcpsp
   0.00000000   0.00000000   0.00000000   0.00000000     rms, ekb1, ekb2, epsatm
    1   0.000   0.000    0   1.4915765        l,e99.0,e99.9,nproj,rcpsp
   0.00000000   0.00000000   0.00000000   0.00000000     rms, ekb1, ekb2, epsatm
    0.00000000000000    0.00000000000000    0.00000000000000   rchrg,fchrg,qchrg
 pspatm: epsatm=    1.43569736
         --- l  ekb(1:nproj) -->
             0    5.763361   -1.798421
 pspatm: atomic psp has been read  and splines computed

   1.58238551E+03                                ecore*ucvol(ha*bohr**3)
--------------------------------------------------------------------------------

-inwffil : will read wavefunctions from disk file perovskite-Gamma_o_DS1_WFK
- newkpt: read input wf with ikpt,npw=   1    5020, make ikpt,npw=   1    5020
- newkpt: read input wf with ikpt,npw=   2    5028, make ikpt,npw=   2    5028
- newkpt: read input wf with ikpt,npw=   3    5035, make ikpt,npw=   3    5035
- newkpt: read input wf with ikpt,npw=   4    5023, make ikpt,npw=   4    5023
- newkpt: read input wf with ikpt,npw=   4    5023, make ikpt,npw=   5    5023
- newkpt: read input wf with ikpt,npw=   3    5035, make ikpt,npw=   6    5035
- newkpt: read input wf with ikpt,npw=   2    5028, make ikpt,npw=   7    5028
- newkpt: read input wf with ikpt,npw=   1    5020, make ikpt,npw=   8    5020
- newkpt: read input wf with ikpt,npw=   2    5028, make ikpt,npw=   9    5028
- newkpt: read input wf with ikpt,npw=   5    5030, make ikpt,npw=  10    5030
- newkpt: read input wf with ikpt,npw=   6    5036, make ikpt,npw=  11    5036
- newkpt: read input wf with ikpt,npw=   7    5026, make ikpt,npw=  12    5026
- newkpt: read input wf with ikpt,npw=   7    5026, make ikpt,npw=  13    5026
- newkpt: read input wf with ikpt,npw=   6    5036, make ikpt,npw=  14    5036
- newkpt: read input wf with ikpt,npw=   5    5030, make ikpt,npw=  15    5030
- newkpt: read input wf with ikpt,npw=   2    5028, make ikpt,npw=  16    5028
- newkpt: read input wf with ikpt,npw=   3    5035, make ikpt,npw=  17    5035
- newkpt: read input wf with ikpt,npw=   6    5036, make ikpt,npw=  18    5036
- newkpt: read input wf with ikpt,npw=   8    5030, make ikpt,npw=  19    5030
- newkpt: read input wf with ikpt,npw=   9    5028, make ikpt,npw=  20    5028
- newkpt: read input wf with ikpt,npw=   9    5028, make ikpt,npw=  21    5028
- newkpt: read input wf with ikpt,npw=   8    5030, make ikpt,npw=  22    5030
- newkpt: read input wf with ikpt,npw=   6    5036, make ikpt,npw=  23    5036
- newkpt: read input wf with ikpt,npw=   3    5035, make ikpt,npw=  24    5035
- newkpt: read input wf with ikpt,npw=   4    5023, make ikpt,npw=  25    5023
- newkpt: read input wf with ikpt,npw=   7    5026, make ikpt,npw=  26    5026
- newkpt: read input wf with ikpt,npw=   9    5028, make ikpt,npw=  27    5028
- newkpt: read input wf with ikpt,npw=  10    5035, make ikpt,npw=  28    5035
- newkpt: read input wf with ikpt,npw=  10    5035, make ikpt,npw=  29    5035
- newkpt: read input wf with ikpt,npw=   9    5028, make ikpt,npw=  30    5028
- newkpt: read input wf with ikpt,npw=   7    5026, make ikpt,npw=  31    5026
- newkpt: read input wf with ikpt,npw=   4    5023, make ikpt,npw=  32    5023
- newkpt: read input wf with ikpt,npw=   4    5023, make ikpt,npw=  33    5023
- newkpt: read input wf with ikpt,npw=   7    5026, make ikpt,npw=  34    5026
- newkpt: read input wf with ikpt,npw=   9    5028, make ikpt,npw=  35    5028
- newkpt: read input wf with ikpt,npw=  10    5035, make ikpt,npw=  36    5035
- newkpt: read input wf with ikpt,npw=  10    5035, make ikpt,npw=  37    5035
- newkpt: read input wf with ikpt,npw=   9    5028, make ikpt,npw=  38    5028
- newkpt: read input wf with ikpt,npw=   7    5026, make ikpt,npw=  39    5026
- newkpt: read input wf with ikpt,npw=   4    5023, make ikpt,npw=  40    5023
- newkpt: read input wf with ikpt,npw=   3    5035, make ikpt,npw=  41    5035
- newkpt: read input wf with ikpt,npw=   6    5036, make ikpt,npw=  42    5036
- newkpt: read input wf with ikpt,npw=   8    5030, make ikpt,npw=  43    5030
- newkpt: read input wf with ikpt,npw=   9    5028, make ikpt,npw=  44    5028
- newkpt: read input wf with ikpt,npw=   9    5028, make ikpt,npw=  45    5028
- newkpt: read input wf with ikpt,npw=   8    5030, make ikpt,npw=  46    5030
- newkpt: read input wf with ikpt,npw=   6    5036, make ikpt,npw=  47    5036
- newkpt: read input wf with ikpt,npw=   3    5035, make ikpt,npw=  48    5035
- newkpt: read input wf with ikpt,npw=   2    5028, make ikpt,npw=  49    5028
- newkpt: read input wf with ikpt,npw=   5    5030, make ikpt,npw=  50    5030
- newkpt : prtvol=0 or 1, do not print more k-points.
 

 ==>  initialize data related to q vector <==

 The list of irreducible perturbations for this q vector is:
    1)    idir= 1    ipert=   1
    2)    idir= 2    ipert=   1
    3)    idir= 1    ipert=   2
    4)    idir= 2    ipert=   2
    5)    idir= 1    ipert=   3
    6)    idir= 2    ipert=   3
    7)    idir= 1    ipert=   4
    8)    idir= 2    ipert=   4
    9)    idir= 3    ipert=   4

================================================================================

 The perturbation idir=   3  ipert=   1 is
 symmetric of a previously calculated perturbation.
 So, its SCF calculation is not needed.


 The perturbation idir=   3  ipert=   2 is
 symmetric of a previously calculated perturbation.
 So, its SCF calculation is not needed.


 The perturbation idir=   3  ipert=   3 is
 symmetric of a previously calculated perturbation.
 So, its SCF calculation is not needed.


 The perturbation idir=   1  ipert=   5 is
 symmetric of a previously calculated perturbation.
 So, its SCF calculation is not needed.


 The perturbation idir=   2  ipert=   5 is
 symmetric of a previously calculated perturbation.
 So, its SCF calculation is not needed.


 The perturbation idir=   3  ipert=   5 is
 symmetric of a previously calculated perturbation.
 So, its SCF calculation is not needed.


--------------------------------------------------------------------------------
 Perturbation wavevector (in red.coord.)   0.500000  0.000000  0.000000
 Perturbation : displacement of atom   1   along direction   1
 Found     8 symmetries that leave the perturbation invariant.
 symkpt : the number of k-points, thanks to the symmetries,
 is reduced to    80 .

--------------------------------------------------------------------------------

-inwffil : will read wavefunctions from disk file perovskite-Gamma_o_DS1_WFK
- newkpt: read input wf with ikpt,npw=   1    5020, make ikpt,npw=   1    5020
- newkpt: read input wf with ikpt,npw=   2    5028, make ikpt,npw=   2    5028
- newkpt: read input wf with ikpt,npw=   3    5035, make ikpt,npw=   3    5035
- newkpt: read input wf with ikpt,npw=   4    5023, make ikpt,npw=   4    5023
- newkpt: read input wf with ikpt,npw=   4    5023, make ikpt,npw=   5    5023
- newkpt: read input wf with ikpt,npw=   3    5035, make ikpt,npw=   6    5035
- newkpt: read input wf with ikpt,npw=   2    5028, make ikpt,npw=   7    5028
- newkpt: read input wf with ikpt,npw=   1    5020, make ikpt,npw=   8    5020
- newkpt: read input wf with ikpt,npw=   2    5028, make ikpt,npw=   9    5028
- newkpt: read input wf with ikpt,npw=   5    5030, make ikpt,npw=  10    5030
- newkpt: read input wf with ikpt,npw=   6    5036, make ikpt,npw=  11    5036
- newkpt: read input wf with ikpt,npw=   7    5026, make ikpt,npw=  12    5026
- newkpt: read input wf with ikpt,npw=   7    5026, make ikpt,npw=  13    5026
- newkpt: read input wf with ikpt,npw=   6    5036, make ikpt,npw=  14    5036
- newkpt: read input wf with ikpt,npw=   5    5030, make ikpt,npw=  15    5030
- newkpt: read input wf with ikpt,npw=   2    5028, make ikpt,npw=  16    5028
- newkpt: read input wf with ikpt,npw=   3    5035, make ikpt,npw=  17    5035
- newkpt: read input wf with ikpt,npw=   6    5036, make ikpt,npw=  18    5036
- newkpt: read input wf with ikpt,npw=   8    5030, make ikpt,npw=  19    5030
- newkpt: read input wf with ikpt,npw=   9    5028, make ikpt,npw=  20    5028
- newkpt: read input wf with ikpt,npw=   9    5028, make ikpt,npw=  21    5028
- newkpt: read input wf with ikpt,npw=   8    5030, make ikpt,npw=  22    5030
- newkpt: read input wf with ikpt,npw=   6    5036, make ikpt,npw=  23    5036
- newkpt: read input wf with ikpt,npw=   3    5035, make ikpt,npw=  24    5035
- newkpt: read input wf with ikpt,npw=   4    5023, make ikpt,npw=  25    5023
- newkpt: read input wf with ikpt,npw=   7    5026, make ikpt,npw=  26    5026
- newkpt: read input wf with ikpt,npw=   9    5028, make ikpt,npw=  27    5028
- newkpt: read input wf with ikpt,npw=  10    5035, make ikpt,npw=  28    5035
- newkpt: read input wf with ikpt,npw=  10    5035, make ikpt,npw=  29    5035
- newkpt: read input wf with ikpt,npw=   9    5028, make ikpt,npw=  30    5028
- newkpt: read input wf with ikpt,npw=   7    5026, make ikpt,npw=  31    5026
- newkpt: read input wf with ikpt,npw=   4    5023, make ikpt,npw=  32    5023
- newkpt: read input wf with ikpt,npw=   5    5030, make ikpt,npw=  33    5030
- newkpt: read input wf with ikpt,npw=  11    5040, make ikpt,npw=  34    5040
- newkpt: read input wf with ikpt,npw=  12    5020, make ikpt,npw=  35    5020
- newkpt: read input wf with ikpt,npw=  13    5026, make ikpt,npw=  36    5026
- newkpt: read input wf with ikpt,npw=  13    5026, make ikpt,npw=  37    5026
- newkpt: read input wf with ikpt,npw=  12    5020, make ikpt,npw=  38    5020
- newkpt: read input wf with ikpt,npw=  11    5040, make ikpt,npw=  39    5040
- newkpt: read input wf with ikpt,npw=   5    5030, make ikpt,npw=  40    5030
- newkpt: read input wf with ikpt,npw=   6    5036, make ikpt,npw=  41    5036
- newkpt: read input wf with ikpt,npw=  12    5020, make ikpt,npw=  42    5020
- newkpt: read input wf with ikpt,npw=  14    5027, make ikpt,npw=  43    5027
- newkpt: read input wf with ikpt,npw=  15    5027, make ikpt,npw=  44    5027
- newkpt: read input wf with ikpt,npw=  15    5027, make ikpt,npw=  45    5027
- newkpt: read input wf with ikpt,npw=  14    5027, make ikpt,npw=  46    5027
- newkpt: read input wf with ikpt,npw=  12    5020, make ikpt,npw=  47    5020
- newkpt: read input wf with ikpt,npw=   6    5036, make ikpt,npw=  48    5036
- newkpt: read input wf with ikpt,npw=   7    5026, make ikpt,npw=  49    5026
- newkpt: read input wf with ikpt,npw=  13    5026, make ikpt,npw=  50    5026
- newkpt : prtvol=0 or 1, do not print more k-points.
 
--------------------------------------------------------------------------------

-inwffil : will read wavefunctions from disk file perovskite-Gamma_o_DS1_WFK
- newkpt: read input wf with ikpt,npw=   4    5023, make ikpt,npw=   1    5023
- newkpt: read input wf with ikpt,npw=   3    5035, make ikpt,npw=   2    5035
- newkpt: read input wf with ikpt,npw=   2    5028, make ikpt,npw=   3    5028
- newkpt: read input wf with ikpt,npw=   1    5020, make ikpt,npw=   4    5020
- newkpt: read input wf with ikpt,npw=   1    5020, make ikpt,npw=   5    5020
- newkpt: read input wf with ikpt,npw=   2    5028, make ikpt,npw=   6    5028
- newkpt: read input wf with ikpt,npw=   3    5035, make ikpt,npw=   7    5035
- newkpt: read input wf with ikpt,npw=   4    5023, make ikpt,npw=   8    5023
- newkpt: read input wf with ikpt,npw=   7    5026, make ikpt,npw=   9    5026
- newkpt: read input wf with ikpt,npw=   6    5036, make ikpt,npw=  10    5036
- newkpt: read input wf with ikpt,npw=   5    5030, make ikpt,npw=  11    5030
- newkpt: read input wf with ikpt,npw=   2    5028, make ikpt,npw=  12    5028
- newkpt: read input wf with ikpt,npw=   2    5028, make ikpt,npw=  13    5028
- newkpt: read input wf with ikpt,npw=   5    5030, make ikpt,npw=  14    5030
- newkpt: read input wf with ikpt,npw=   6    5036, make ikpt,npw=  15    5036
- newkpt: read input wf with ikpt,npw=   7    5026, make ikpt,npw=  16    5026
- newkpt: read input wf with ikpt,npw=   9    5028, make ikpt,npw=  17    5028
- newkpt: read input wf with ikpt,npw=   8    5030, make ikpt,npw=  18    5030
- newkpt: read input wf with ikpt,npw=   6    5036, make ikpt,npw=  19    5036
- newkpt: read input wf with ikpt,npw=   3    5035, make ikpt,npw=  20    5035
- newkpt: read input wf with ikpt,npw=   3    5035, make ikpt,npw=  21    5035
- newkpt: read input wf with ikpt,npw=   6    5036, make ikpt,npw=  22    5036
- newkpt: read input wf with ikpt,npw=   8    5030, make ikpt,npw=  23    5030
- newkpt: read input wf with ikpt,npw=   9    5028, make ikpt,npw=  24    5028
- newkpt: read input wf with ikpt,npw=  10    5035, make ikpt,npw=  25    5035
- newkpt: read input wf with ikpt,npw=   9    5028, make ikpt,npw=  26    5028
- newkpt: read input wf with ikpt,npw=   7    5026, make ikpt,npw=  27    5026
- newkpt: read input wf with ikpt,npw=   4    5023, make ikpt,npw=  28    5023
- newkpt: read input wf with ikpt,npw=   4    5023, make ikpt,npw=  29    5023
- newkpt: read input wf with ikpt,npw=   7    5026, make ikpt,npw=  30    5026
- newkpt: read input wf with ikpt,npw=   9    5028, make ikpt,npw=  31    5028
- newkpt: read input wf with ikpt,npw=  10    5035, make ikpt,npw=  32    5035
- newkpt: read input wf with ikpt,npw=  13    5026, make ikpt,npw=  33    5026
- newkpt: read input wf with ikpt,npw=  12    5020, make ikpt,npw=  34    5020
- newkpt: read input wf with ikpt,npw=  11    5040, make ikpt,npw=  35    5040
- newkpt: read input wf with ikpt,npw=   5    5030, make ikpt,npw=  36    5030
- newkpt: read input wf with ikpt,npw=   5    5030, make ikpt,npw=  37    5030
- newkpt: read input wf with ikpt,npw=  11    5040, make ikpt,npw=  38    5040
- newkpt: read input wf with ikpt,npw=  12    5020, make ikpt,npw=  39    5020
- newkpt: read input wf with ikpt,npw=  13    5026, make ikpt,npw=  40    5026
- newkpt: read input wf with ikpt,npw=  15    5027, make ikpt,npw=  41    5027
- newkpt: read input wf with ikpt,npw=  14    5027, make ikpt,npw=  42    5027
- newkpt: read input wf with ikpt,npw=  12    5020, make ikpt,npw=  43    5020
- newkpt: read input wf with ikpt,npw=   6    5036, make ikpt,npw=  44    5036
- newkpt: read input wf with ikpt,npw=   6    5036, make ikpt,npw=  45    5036
- newkpt: read input wf with ikpt,npw=  12    5020, make ikpt,npw=  46    5020
- newkpt: read input wf with ikpt,npw=  14    5027, make ikpt,npw=  47    5027
- newkpt: read input wf with ikpt,npw=  15    5027, make ikpt,npw=  48    5027
- newkpt: read input wf with ikpt,npw=  16    5025, make ikpt,npw=  49    5025
- newkpt: read input wf with ikpt,npw=  15    5027, make ikpt,npw=  50    5027
- newkpt : prtvol=0 or 1, do not print more k-points.
 
 Initialisation of the first-order wave-functions :
  ireadwf=   0
P newkpt: treating     22 bands with npw=    5023 for ikpt=   1
P newkpt: treating     22 bands with npw=    5035 for ikpt=   2
P newkpt: treating     22 bands with npw=    5028 for ikpt=   3
P newkpt: treating     22 bands with npw=    5020 for ikpt=   4
P newkpt: treating     22 bands with npw=    5020 for ikpt=   5
P newkpt: treating     22 bands with npw=    5028 for ikpt=   6
P newkpt: treating     22 bands with npw=    5035 for ikpt=   7
P newkpt: treating     22 bands with npw=    5023 for ikpt=   8
P newkpt: treating     22 bands with npw=    5026 for ikpt=   9
P newkpt: treating     22 bands with npw=    5036 for ikpt=  10
P newkpt: treating     22 bands with npw=    5030 for ikpt=  11
P newkpt: treating     22 bands with npw=    5028 for ikpt=  12
P newkpt: treating     22 bands with npw=    5028 for ikpt=  13
P newkpt: treating     22 bands with npw=    5030 for ikpt=  14
P newkpt: treating     22 bands with npw=    5036 for ikpt=  15
P newkpt: treating     22 bands with npw=    5026 for ikpt=  16
P newkpt: treating     22 bands with npw=    5028 for ikpt=  17
P newkpt: treating     22 bands with npw=    5030 for ikpt=  18
P newkpt: treating     22 bands with npw=    5036 for ikpt=  19
P newkpt: treating     22 bands with npw=    5035 for ikpt=  20
P newkpt: treating     22 bands with npw=    5035 for ikpt=  21
P newkpt: treating     22 bands with npw=    5036 for ikpt=  22
P newkpt: treating     22 bands with npw=    5030 for ikpt=  23
P newkpt: treating     22 bands with npw=    5028 for ikpt=  24
P newkpt: treating     22 bands with npw=    5035 for ikpt=  25
P newkpt: treating     22 bands with npw=    5028 for ikpt=  26
P newkpt: treating     22 bands with npw=    5026 for ikpt=  27
P newkpt: treating     22 bands with npw=    5023 for ikpt=  28
P newkpt: treating     22 bands with npw=    5023 for ikpt=  29
P newkpt: treating     22 bands with npw=    5026 for ikpt=  30
P newkpt: treating     22 bands with npw=    5028 for ikpt=  31
P newkpt: treating     22 bands with npw=    5035 for ikpt=  32
P newkpt: treating     22 bands with npw=    5026 for ikpt=  33
P newkpt: treating     22 bands with npw=    5020 for ikpt=  34
P newkpt: treating     22 bands with npw=    5040 for ikpt=  35
P newkpt: treating     22 bands with npw=    5030 for ikpt=  36
P newkpt: treating     22 bands with npw=    5030 for ikpt=  37
P newkpt: treating     22 bands with npw=    5040 for ikpt=  38
P newkpt: treating     22 bands with npw=    5020 for ikpt=  39
P newkpt: treating     22 bands with npw=    5026 for ikpt=  40
P newkpt: treating     22 bands with npw=    5027 for ikpt=  41
P newkpt: treating     22 bands with npw=    5027 for ikpt=  42
P newkpt: treating     22 bands with npw=    5020 for ikpt=  43
P newkpt: treating     22 bands with npw=    5036 for ikpt=  44
P newkpt: treating     22 bands with npw=    5036 for ikpt=  45
P newkpt: treating     22 bands with npw=    5020 for ikpt=  46
P newkpt: treating     22 bands with npw=    5027 for ikpt=  47
P newkpt: treating     22 bands with npw=    5027 for ikpt=  48
P newkpt: treating     22 bands with npw=    5025 for ikpt=  49
P newkpt: treating     22 bands with npw=    5027 for ikpt=  50
  newkpt: prtvol=0 or 1, do not print more k-points.
 

     iter   2DEtotal(Ha)        deltaE(Ha) residm    vres2
-ETOT  1   17690.580980902      7.794E+03 1.106E+02 2.501E+08
 ETOT  2   14381.357136326     -3.309E+03 2.596E+02 1.433E+08
 ETOT  3   390.04237182294     -1.399E+04 5.275E+01 6.387E+05
 ETOT  4   1639.8104416025      1.250E+03 3.408E+01 1.158E+07
 ETOT  5   140.93399079539     -1.499E+03 1.185E+01 1.641E+06
 ETOT  6   40.380355685385     -1.006E+02 2.378E+00 5.377E+05
 ETOT  7   29.887856288959     -1.049E+01 1.188E-01 2.109E+05
 ETOT  8   29.906058238811      1.820E-02 1.677E-02 3.051E+05
 ETOT  9   28.774566219249     -1.131E+00 9.043E-03 2.293E+05
 ETOT 10   56.716725665806      2.794E+01 1.256E+00 8.787E+04
 ETOT 11   10.282042855270     -4.643E+01 3.342E-01 3.024E+04
 ETOT 12   8.4929734994776     -1.789E+00 2.409E-01 4.568E+04
 ETOT 13   7.6290882918993     -8.639E-01 1.101E-01 1.041E+04
 ETOT 14   6.3357162996608     -1.293E+00 1.548E-02 7.831E+03
 ETOT 15   5.9820966444395     -3.536E-01 6.923E-03 1.255E+04
 ETOT 16   5.4800066132948     -5.021E-01 7.405E-03 1.856E+03
 ETOT 17   5.4675352128388     -1.247E-02 1.482E-03 2.082E+03
 ETOT 18   5.4602786581572     -7.257E-03 1.870E-04 2.527E+03
 ETOT 19   5.4333846247473     -2.689E-02 5.298E-03 9.185E+02
 ETOT 20   5.2630152774664     -1.704E-01 3.487E-03 4.637E+01
 ETOT 21   5.2613345532873     -1.681E-03 5.068E-04 7.576E+01
 ETOT 22   5.2603938623679     -9.407E-04 4.145E-05 2.997E+01
 ETOT 23   5.2615553470632      1.161E-03 1.593E-05 4.534E+01
 ETOT 24   5.2625876184602      1.032E-03 5.883E-06 5.872E+01
 ETOT 25   5.2615350756341     -1.053E-03 1.668E-05 2.575E+01
 ETOT 26   5.2616492296775      1.142E-04 8.775E-07 3.494E+01
 ETOT 27   5.2580482916519     -3.601E-03 9.952E-05 5.117E+01
 ETOT 28   5.2607491734625      2.701E-03 1.322E-05 8.903E+01
 ETOT 29   5.2576768543995     -3.072E-03 1.111E-05 3.431E+01
 ETOT 30   5.2574785280040     -1.983E-04 5.131E-07 4.303E+01
 ETOT 31   5.2550036638613     -2.475E-03 2.871E-05 1.206E+00
 ETOT 32   5.2550832127481      7.955E-05 2.584E-06 1.929E+00
 ETOT 33   5.2549015492268     -1.817E-04 2.608E-06 3.090E-01
 ETOT 34   5.2548805011693     -2.105E-05 3.139E-07 4.336E-01
 ETOT 35   5.2548733817830     -7.119E-06 2.974E-07 2.522E-01
 ETOT 36   5.2548753748115      1.993E-06 8.226E-08 2.555E-01
 ETOT 37   5.2548738178966     -1.557E-06 3.049E-08 2.910E-01
 ETOT 38   5.2548744109272      5.930E-07 4.990E-09 2.826E-01
 ETOT 39   5.2548755905909      1.180E-06 1.127E-08 2.533E-01
 ETOT 40   5.2548637742339     -1.182E-05 7.242E-09 1.348E-01
 ETOT 41   5.2548697905977      6.016E-06 7.997E-09 1.906E-01
 ETOT 42   5.2548595587750     -1.023E-05 7.952E-09 5.811E-02
 ETOT 43   5.2548576207400     -1.938E-06 2.846E-09 2.241E-02
 ETOT 44   5.2548567805252     -8.402E-07 2.072E-09 2.908E-03
 ETOT 45   5.2548564424496     -3.381E-07 5.053E-10 1.617E-03
 ETOT 46   5.2548563469563     -9.549E-08 1.721E-10 7.551E-05
 ETOT 47   5.2548563361916     -1.076E-08 2.607E-11 2.996E-05
 ETOT 48   5.2548563339578     -2.234E-09 6.915E-12 1.080E-05
 ETOT 49   5.2548563330211     -9.368E-10 6.340E-13 5.106E-06
 ETOT 50   5.2548563326300     -3.911E-10 4.581E-13 1.710E-06
 ETOT 51   5.2548563324881     -1.419E-10 1.282E-13 8.264E-07
 ETOT 52   5.2548563324499     -3.820E-11 1.266E-14 1.804E-07
 ETOT 53   5.2548563324972      4.729E-11 2.009E-14 1.704E-08
 ETOT 54   5.2548563324626     -3.456E-11 4.660E-15 3.119E-08
 ETOT 55   5.2548563325390      7.640E-11 1.741E-15 9.762E-10

 At SCF step   55       vres2   =  9.76E-10 < tolvrs=  1.00E-08 =>converged.
================================================================================

 ----iterations are completed or convergence reached----

 Mean square residual over all n,k,spin=   8.7053E-17; max=  1.7414E-15
   0.0625  0.0625  0.0625    1  1.56838E-16 kpt; spin; max resid(k); each band:
 1.80E-18 1.10E-19 6.50E-20 1.64E-19 4.00E-18 1.17E-17 1.24E-17 3.51E-19
 1.39E-19 4.12E-19 6.32E-19 5.74E-19 2.82E-17 3.97E-17 2.58E-17 1.23E-17
 5.96E-17 7.77E-17 4.41E-17 1.01E-16 5.66E-17 1.57E-16
   0.1875  0.0625  0.0625    1  4.17678E-16 kpt; spin; max resid(k); each band:
 2.59E-18 4.06E-19 4.32E-20 9.30E-20 6.01E-18 9.81E-18 8.74E-18 1.64E-19
 2.28E-19 1.96E-18 1.26E-18 9.15E-19 8.61E-18 3.67E-17 4.57E-17 3.25E-17
 2.01E-16 4.18E-16 1.87E-16 2.55E-16 2.76E-16 2.48E-16
   0.3125  0.0625  0.0625    1  8.01225E-16 kpt; spin; max resid(k); each band:
 2.91E-18 6.44E-19 7.41E-20 1.08E-19 1.08E-17 7.03E-18 9.49E-18 1.09E-19
 4.08E-19 9.85E-19 6.37E-19 7.32E-19 1.91E-17 5.39E-17 1.03E-16 1.87E-16
 3.08E-16 8.01E-16 2.20E-16 2.74E-16 2.07E-16 2.05E-16
   0.4375  0.0625  0.0625    1  8.25668E-16 kpt; spin; max resid(k); each band:
 3.12E-18 3.41E-19 8.45E-20 4.22E-20 1.74E-17 3.23E-18 9.66E-18 4.68E-19
 4.41E-19 4.28E-19 2.93E-19 2.58E-19 2.41E-17 7.28E-17 6.42E-17 5.39E-16
 8.26E-16 2.78E-16 1.37E-16 1.67E-16 6.46E-17 9.08E-17
  -0.4375  0.0625  0.0625    1  8.25589E-16 kpt; spin; max resid(k); each band:
 3.12E-18 3.41E-19 8.45E-20 4.22E-20 1.74E-17 3.24E-18 9.66E-18 4.68E-19
 4.41E-19 4.28E-19 2.93E-19 2.58E-19 2.41E-17 7.28E-17 6.43E-17 5.39E-16
 8.26E-16 2.78E-16 1.37E-16 1.67E-16 6.46E-17 9.09E-17
  -0.3125  0.0625  0.0625    1  8.01191E-16 kpt; spin; max resid(k); each band:
 2.91E-18 6.44E-19 7.41E-20 1.08E-19 1.08E-17 7.04E-18 9.49E-18 1.09E-19
 4.08E-19 9.85E-19 6.37E-19 7.32E-19 1.91E-17 5.40E-17 1.03E-16 1.87E-16
 3.08E-16 8.01E-16 2.20E-16 2.74E-16 2.07E-16 2.05E-16
  -0.1875  0.0625  0.0625    1  4.17738E-16 kpt; spin; max resid(k); each band:
 2.59E-18 4.07E-19 4.32E-20 9.30E-20 6.00E-18 9.82E-18 8.74E-18 1.64E-19
 2.28E-19 1.96E-18 1.26E-18 9.15E-19 8.60E-18 3.67E-17 4.57E-17 3.25E-17
 2.01E-16 4.18E-16 1.87E-16 2.55E-16 2.76E-16 2.48E-16
  -0.0625  0.0625  0.0625    1  1.56866E-16 kpt; spin; max resid(k); each band:
 1.80E-18 1.10E-19 6.50E-20 1.64E-19 4.00E-18 1.17E-17 1.24E-17 3.51E-19
 1.39E-19 4.12E-19 6.32E-19 5.74E-19 2.81E-17 3.97E-17 2.58E-17 1.23E-17
 5.97E-17 7.80E-17 4.42E-17 1.01E-16 5.66E-17 1.57E-16
   0.0625  0.1875  0.0625    1  2.37225E-16 kpt; spin; max resid(k); each band:
 1.38E-18 1.09E-19 1.42E-19 1.64E-19 3.32E-18 9.84E-18 1.14E-17 1.33E-19
 2.15E-19 1.83E-19 6.66E-19 5.30E-19 6.74E-17 9.62E-17 9.80E-17 5.83E-17
 6.03E-17 7.86E-17 3.82E-17 1.00E-16 4.28E-17 2.37E-16
   0.1875  0.1875  0.0625    1  3.84659E-16 kpt; spin; max resid(k); each band:
 2.30E-18 2.60E-19 3.82E-19 3.23E-20 5.38E-18 1.09E-17 9.44E-18 1.54E-19
 1.85E-19 4.37E-19 7.16E-19 7.68E-19 3.19E-17 7.33E-17 1.56E-16 8.54E-17
 1.63E-16 2.79E-16 2.79E-16 3.85E-16 1.86E-16 3.25E-16
   0.3125  0.1875  0.0625    1  8.60364E-16 kpt; spin; max resid(k); each band:
 2.56E-18 6.33E-19 1.24E-19 9.31E-20 1.04E-17 7.71E-18 7.84E-18 1.34E-19
 4.36E-19 3.60E-19 7.30E-19 8.97E-19 3.24E-17 4.99E-17 1.01E-16 2.31E-16
 2.40E-16 6.85E-16 8.60E-16 2.75E-16 5.72E-16 1.76E-16
   0.4375  0.1875  0.0625    1  8.81773E-16 kpt; spin; max resid(k); each band:
 2.43E-18 1.80E-19 1.23E-19 6.79E-20 1.72E-17 2.25E-17 4.22E-18 1.08E-18
 7.91E-19 1.03E-18 8.75E-19 4.59E-19 7.46E-17 7.13E-17 2.16E-16 3.11E-16
 3.48E-16 8.82E-16 4.35E-16 1.41E-16 5.11E-16 2.06E-16
  -0.4375  0.1875  0.0625    1  8.81726E-16 kpt; spin; max resid(k); each band:
 2.43E-18 1.80E-19 1.23E-19 6.79E-20 1.72E-17 2.25E-17 4.22E-18 1.08E-18
 7.91E-19 1.04E-18 8.75E-19 4.59E-19 7.46E-17 7.13E-17 2.16E-16 3.11E-16
 3.48E-16 8.82E-16 4.35E-16 1.41E-16 5.11E-16 2.06E-16
  -0.3125  0.1875  0.0625    1  8.60384E-16 kpt; spin; max resid(k); each band:
 2.56E-18 6.33E-19 1.24E-19 9.32E-20 1.04E-17 7.72E-18 7.84E-18 1.34E-19
 4.38E-19 3.60E-19 7.30E-19 8.97E-19 3.24E-17 4.99E-17 1.01E-16 2.31E-16
 2.40E-16 6.85E-16 8.60E-16 2.75E-16 5.72E-16 1.76E-16
  -0.1875  0.1875  0.0625    1  3.84712E-16 kpt; spin; max resid(k); each band:
 2.30E-18 2.60E-19 3.82E-19 3.23E-20 5.38E-18 1.09E-17 9.44E-18 1.54E-19
 1.85E-19 4.37E-19 7.16E-19 7.68E-19 3.19E-17 7.33E-17 1.56E-16 8.54E-17
 1.63E-16 2.79E-16 2.79E-16 3.85E-16 1.86E-16 3.25E-16
  -0.0625  0.1875  0.0625    1  2.37274E-16 kpt; spin; max resid(k); each band:
 1.38E-18 1.09E-19 1.42E-19 1.64E-19 3.32E-18 9.84E-18 1.14E-17 1.36E-19
 2.15E-19 1.83E-19 6.66E-19 5.30E-19 6.74E-17 9.62E-17 9.80E-17 5.83E-17
 6.03E-17 7.86E-17 3.80E-17 1.00E-16 4.28E-17 2.37E-16
   0.0625  0.3125  0.0625    1  2.27289E-16 kpt; spin; max resid(k); each band:
 1.45E-18 6.68E-20 1.50E-19 1.70E-19 4.09E-18 7.56E-18 9.84E-18 1.37E-19
 9.33E-19 1.64E-19 5.14E-19 3.13E-19 5.05E-17 1.13E-16 9.90E-17 6.04E-17
 4.40E-17 5.94E-17 3.63E-17 1.06E-16 2.54E-17 2.27E-16
   0.1875  0.3125  0.0625    1  3.75600E-16 kpt; spin; max resid(k); each band:
 1.64E-18 7.33E-20 4.13E-19 6.44E-20 5.52E-18 9.51E-18 7.33E-18 1.51E-19
 1.26E-19 5.86E-19 6.46E-19 5.18E-19 3.71E-17 1.01E-16 1.53E-16 8.88E-17
 3.38E-17 1.47E-16 7.47E-17 3.76E-16 1.73E-16 2.71E-16
   0.3125  0.3125  0.0625    1  7.13464E-16 kpt; spin; max resid(k); each band:
 1.91E-18 1.55E-19 2.13E-19 8.97E-20 1.12E-17 7.02E-18 5.82E-18 1.72E-19
 4.78E-19 4.59E-19 6.31E-19 9.48E-19 3.57E-17 7.91E-17 1.02E-16 2.15E-16
 2.62E-16 5.00E-17 7.13E-16 5.39E-16 9.39E-17 6.35E-16
   0.4375  0.3125  0.0625    1  1.73852E-15 kpt; spin; max resid(k); each band:
 1.64E-18 1.57E-19 7.77E-20 6.67E-20 1.88E-17 4.72E-18 3.05E-18 2.82E-19
 5.25E-19 7.39E-19 5.98E-19 1.25E-18 1.07E-16 8.26E-17 2.02E-16 1.23E-16
 3.73E-16 7.32E-16 9.95E-16 2.01E-16 1.62E-16 1.74E-15
  -0.4375  0.3125  0.0625    1  1.74142E-15 kpt; spin; max resid(k); each band:
 1.64E-18 1.57E-19 7.77E-20 6.67E-20 1.88E-17 4.72E-18 3.05E-18 2.82E-19
 5.25E-19 7.36E-19 5.80E-19 1.25E-18 1.07E-16 8.26E-17 2.02E-16 1.23E-16
 3.73E-16 7.32E-16 9.95E-16 2.01E-16 1.62E-16 1.74E-15
  -0.3125  0.3125  0.0625    1  7.13504E-16 kpt; spin; max resid(k); each band:
 1.91E-18 1.55E-19 2.13E-19 8.97E-20 1.12E-17 7.02E-18 5.82E-18 1.72E-19
 4.78E-19 4.59E-19 6.31E-19 9.48E-19 3.57E-17 7.91E-17 1.02E-16 2.15E-16
 2.62E-16 5.00E-17 7.14E-16 5.39E-16 9.39E-17 6.35E-16
  -0.1875  0.3125  0.0625    1  3.75301E-16 kpt; spin; max resid(k); each band:
 1.64E-18 7.33E-20 4.13E-19 6.45E-20 5.52E-18 9.51E-18 7.33E-18 1.51E-19
 1.26E-19 5.86E-19 6.46E-19 5.18E-19 3.71E-17 1.01E-16 1.53E-16 8.88E-17
 3.38E-17 1.47E-16 7.47E-17 3.75E-16 1.73E-16 2.71E-16
  -0.0625  0.3125  0.0625    1  2.27267E-16 kpt; spin; max resid(k); each band:
 1.45E-18 6.68E-20 1.50E-19 1.70E-19 4.09E-18 7.56E-18 9.84E-18 1.37E-19
 9.33E-19 1.64E-19 5.14E-19 3.13E-19 5.05E-17 1.13E-16 9.90E-17 6.04E-17
 4.40E-17 5.94E-17 3.63E-17 1.06E-16 2.54E-17 2.27E-16
   0.0625  0.4375  0.0625    1  1.72669E-16 kpt; spin; max resid(k); each band:
 1.38E-18 1.01E-20 1.56E-19 1.47E-19 4.80E-18 1.43E-18 7.23E-18 2.46E-19
 5.24E-19 2.51E-19 1.60E-19 1.03E-19 4.56E-17 1.73E-17 1.49E-16 9.84E-17
 6.03E-17 1.30E-17 3.45E-17 1.38E-16 1.50E-17 1.73E-16
   0.1875  0.4375  0.0625    1  3.94375E-16 kpt; spin; max resid(k); each band:
 1.44E-18 1.38E-20 3.98E-19 7.07E-20 1.16E-17 8.52E-18 4.89E-18 2.05E-19
 1.17E-19 5.69E-19 8.28E-19 2.82E-19 3.87E-17 3.29E-17 1.68E-16 4.85E-17
 5.41E-17 1.51E-16 1.64E-16 3.94E-16 1.89E-16 1.89E-16
   0.3125  0.4375  0.0625    1  4.24968E-16 kpt; spin; max resid(k); each band:
 1.51E-18 1.45E-20 2.83E-19 9.54E-20 1.08E-17 5.30E-18 2.97E-18 1.01E-19
 6.80E-19 4.13E-19 5.50E-19 9.26E-19 3.67E-17 4.43E-17 3.71E-17 2.52E-16
 1.57E-16 1.01E-16 1.13E-16 4.25E-16 5.18E-17 4.24E-16
   0.4375  0.4375  0.0625    1  1.09637E-15 kpt; spin; max resid(k); each band:
 1.76E-18 7.75E-20 4.64E-20 6.23E-20 1.86E-17 1.76E-18 1.78E-18 1.98E-19
 7.95E-19 6.54E-19 5.67E-19 9.71E-19 1.22E-16 1.14E-17 7.68E-17 2.26E-16
 2.08E-16 4.95E-16 1.10E-15 5.30E-16 2.62E-17 1.04E-15
  -0.4375  0.4375  0.0625    1  1.09637E-15 kpt; spin; max resid(k); each band:
 1.76E-18 7.75E-20 4.63E-20 6.23E-20 1.86E-17 1.76E-18 1.78E-18 1.98E-19
 7.95E-19 6.54E-19 5.66E-19 9.71E-19 1.22E-16 1.14E-17 7.68E-17 2.26E-16
 2.08E-16 4.95E-16 1.10E-15 5.30E-16 2.62E-17 1.04E-15
  -0.3125  0.4375  0.0625    1  4.24323E-16 kpt; spin; max resid(k); each band:
 1.51E-18 1.45E-20 2.83E-19 9.54E-20 1.08E-17 5.30E-18 2.97E-18 1.01E-19
 6.80E-19 4.13E-19 5.50E-19 9.26E-19 3.67E-17 4.43E-17 3.71E-17 2.52E-16
 1.57E-16 1.01E-16 1.13E-16 4.24E-16 5.18E-17 4.24E-16
  -0.1875  0.4375  0.0625    1  3.94443E-16 kpt; spin; max resid(k); each band:
 1.44E-18 1.38E-20 3.98E-19 7.07E-20 1.16E-17 8.52E-18 4.89E-18 2.05E-19
 1.17E-19 5.69E-19 8.27E-19 2.82E-19 3.87E-17 3.29E-17 1.68E-16 4.85E-17
 5.41E-17 1.51E-16 1.64E-16 3.94E-16 1.89E-16 1.89E-16
  -0.0625  0.4375  0.0625    1  1.72716E-16 kpt; spin; max resid(k); each band:
 1.38E-18 1.01E-20 1.56E-19 1.47E-19 4.80E-18 1.43E-18 7.23E-18 2.46E-19
 5.24E-19 2.51E-19 1.60E-19 1.03E-19 4.56E-17 1.73E-17 1.49E-16 9.84E-17
 6.03E-17 1.29E-17 3.44E-17 1.38E-16 1.50E-17 1.73E-16
   0.0625  0.1875  0.1875    1  3.93532E-16 kpt; spin; max resid(k); each band:
 1.37E-18 4.04E-20 1.40E-19 2.03E-19 2.72E-18 9.45E-18 7.26E-18 1.90E-19
 1.03E-19 2.61E-19 1.15E-18 1.61E-18 1.26E-16 6.69E-17 3.46E-17 9.43E-17
 3.35E-17 9.03E-17 3.79E-17 2.03E-16 3.09E-17 3.94E-16
   0.1875  0.1875  0.1875    1  5.94362E-16 kpt; spin; max resid(k); each band:
 1.91E-18 1.54E-19 1.48E-19 4.12E-19 3.70E-18 8.56E-18 8.72E-18 3.93E-19
 1.04E-19 3.91E-19 6.60E-19 9.87E-19 8.23E-17 1.06E-16 1.91E-16 1.23E-16
 1.17E-16 1.28E-16 8.33E-17 2.44E-16 5.94E-16 2.00E-16
   0.3125  0.1875  0.1875    1  5.20935E-16 kpt; spin; max resid(k); each band:
 2.03E-18 6.00E-19 9.88E-20 1.44E-19 8.06E-18 5.83E-18 5.84E-18 3.22E-19
 3.70E-19 8.22E-19 6.89E-19 6.67E-19 4.10E-17 1.72E-16 4.52E-17 2.72E-16
 6.89E-17 2.80E-16 5.21E-16 5.89E-17 3.81E-16 2.93E-16
   0.4375  0.1875  0.1875    1  7.19950E-16 kpt; spin; max resid(k); each band:
 1.65E-18 2.16E-19 1.01E-19 1.32E-19 1.40E-17 6.32E-18 2.93E-18 1.41E-18
 2.78E-19 1.53E-18 7.98E-19 3.33E-19 1.04E-16 7.87E-17 1.78E-17 4.66E-16
 7.71E-17 4.85E-16 6.05E-16 4.94E-17 3.02E-16 7.20E-16
  -0.4375  0.1875  0.1875    1  7.19848E-16 kpt; spin; max resid(k); each band:
 1.65E-18 2.16E-19 1.01E-19 1.32E-19 1.40E-17 6.32E-18 2.94E-18 1.41E-18
 2.78E-19 1.53E-18 7.98E-19 3.33E-19 1.04E-16 7.87E-17 1.78E-17 4.66E-16
 7.71E-17 4.85E-16 6.05E-16 4.94E-17 3.02E-16 7.20E-16
  -0.3125  0.1875  0.1875    1  5.20921E-16 kpt; spin; max resid(k); each band:
 2.03E-18 5.99E-19 9.89E-20 1.44E-19 8.06E-18 5.83E-18 5.84E-18 3.22E-19
 3.70E-19 8.22E-19 6.89E-19 6.67E-19 4.10E-17 1.72E-16 4.52E-17 2.72E-16
 6.89E-17 2.80E-16 5.21E-16 5.89E-17 3.81E-16 2.93E-16
  -0.1875  0.1875  0.1875    1  5.94420E-16 kpt; spin; max resid(k); each band:
 1.91E-18 1.54E-19 1.48E-19 4.12E-19 3.70E-18 8.56E-18 8.72E-18 3.93E-19
 1.04E-19 3.91E-19 6.40E-19 9.87E-19 8.23E-17 1.06E-16 1.91E-16 1.23E-16
 1.17E-16 1.28E-16 8.33E-17 2.44E-16 5.94E-16 2.00E-16
  -0.0625  0.1875  0.1875    1  3.93830E-16 kpt; spin; max resid(k); each band:
 1.37E-18 4.04E-20 1.40E-19 2.03E-19 2.72E-18 9.45E-18 7.26E-18 1.90E-19
 1.03E-19 2.61E-19 1.15E-18 1.61E-18 1.26E-16 6.69E-17 3.46E-17 9.43E-17
 3.35E-17 9.03E-17 3.79E-17 2.03E-16 3.09E-17 3.94E-16
   0.0625  0.3125  0.1875    1  5.04976E-16 kpt; spin; max resid(k); each band:
 1.34E-18 6.46E-20 1.06E-19 2.08E-19 1.20E-18 8.13E-18 5.51E-18 5.76E-19
 2.23E-19 2.76E-19 6.45E-19 5.99E-19 1.07E-16 4.41E-17 7.37E-17 7.11E-17
 5.50E-17 7.56E-17 8.86E-17 1.64E-16 5.66E-17 5.05E-16
   0.1875  0.3125  0.1875    1  3.92282E-16 kpt; spin; max resid(k); each band:
 1.31E-18 7.25E-20 2.32E-19 3.94E-19 2.75E-18 7.91E-18 5.93E-18 5.63E-19
 5.04E-19 2.87E-19 7.73E-19 4.46E-19 8.38E-17 1.18E-16 1.99E-16 8.75E-17
 6.83E-17 1.25E-16 1.08E-16 1.24E-16 2.04E-16 3.92E-16
   0.3125  0.3125  0.1875    1  6.96545E-16 kpt; spin; max resid(k); each band:
 1.41E-18 1.33E-19 2.07E-19 1.30E-19 7.03E-18 1.23E-17 5.07E-18 1.68E-19
 6.74E-19 6.61E-19 4.77E-19 8.34E-19 4.72E-17 1.66E-16 2.16E-16 8.49E-17
 1.51E-16 1.39E-16 2.89E-16 6.97E-16 2.30E-16 6.28E-16
   0.4375  0.3125  0.1875    1  1.61286E-15 kpt; spin; max resid(k); each band:
 1.69E-18 1.88E-19 7.88E-20 1.32E-19 1.25E-17 4.92E-18 2.96E-18 2.90E-19
 3.83E-19 1.51E-18 2.90E-19 8.46E-19 1.22E-16 8.71E-17 3.08E-17 4.17E-16
 3.29E-16 1.93E-16 2.68E-16 1.61E-15 1.13E-16 1.08E-15
  -0.4375  0.3125  0.1875    1  1.61284E-15 kpt; spin; max resid(k); each band:
 1.69E-18 1.88E-19 7.88E-20 1.32E-19 1.25E-17 4.92E-18 2.97E-18 2.90E-19
 3.83E-19 1.51E-18 2.90E-19 8.46E-19 1.22E-16 8.71E-17 3.08E-17 4.17E-16
 3.29E-16 1.93E-16 2.68E-16 1.61E-15 1.13E-16 1.08E-15
  -0.3125  0.3125  0.1875    1  6.96581E-16 kpt; spin; max resid(k); each band:
 1.41E-18 1.33E-19 2.07E-19 1.30E-19 7.03E-18 1.23E-17 5.08E-18 1.68E-19
 6.74E-19 6.61E-19 4.77E-19 8.34E-19 4.72E-17 1.66E-16 2.16E-16 8.49E-17
 1.51E-16 1.39E-16 2.89E-16 6.97E-16 2.30E-16 6.27E-16
  -0.1875  0.3125  0.1875    1  3.92327E-16 kpt; spin; max resid(k); each band:
 1.31E-18 7.25E-20 2.32E-19 3.94E-19 2.75E-18 7.91E-18 5.93E-18 5.63E-19
 5.05E-19 2.86E-19 7.73E-19 4.46E-19 8.38E-17 1.18E-16 1.99E-16 8.75E-17
 6.83E-17 1.25E-16 1.08E-16 1.24E-16 2.04E-16 3.92E-16
  -0.0625  0.3125  0.1875    1  5.05153E-16 kpt; spin; max resid(k); each band:
 1.34E-18 6.46E-20 1.06E-19 2.08E-19 1.19E-18 8.13E-18 5.51E-18 5.76E-19
 2.23E-19 2.76E-19 6.45E-19 5.99E-19 1.07E-16 4.41E-17 7.36E-17 7.12E-17
 5.50E-17 7.56E-17 8.86E-17 1.64E-16 5.65E-17 5.05E-16
   0.0625  0.4375  0.1875    1  5.34768E-16 kpt; spin; max resid(k); each band:
 1.27E-18 1.16E-20 1.04E-19 1.93E-19 2.32E-18 6.77E-18 4.54E-18 8.52E-19
 2.00E-18 1.72E-18 2.87E-19 3.26E-19 9.41E-17 2.66E-17 7.02E-17 1.03E-16
 3.72E-17 3.35E-17 1.60E-16 1.30E-16 6.11E-17 5.35E-16
   0.1875  0.4375  0.1875    1  2.70679E-16 kpt; spin; max resid(k); each band:
 1.33E-18 1.60E-20 2.08E-19 3.94E-19 5.07E-18 6.22E-18 2.39E-18 7.11E-19
 6.45E-19 9.38E-19 6.87E-19 1.77E-19 7.61E-17 1.65E-17 2.01E-16 6.50E-17
 4.26E-17 2.06E-16 5.18E-17 7.44E-17 2.71E-16 2.55E-16
 outwf : prtvol=0 or 1, do not print more k-points.


 Thirteen components of 2nd-order total energy (hartree) are
 1,2,3: 0th-order hamiltonian combined with 1st-order wavefunctions
     kin0=   1.36490124E+04 eigvalue=   6.65725078E+02  local=  -8.25784822E+03
 4,5,6: 1st-order hamiltonian combined with 1st and 0th-order wfs
 loc psp =  -8.98941967E+03  Hartree=   1.36850690E+03     xc=  -2.35396882E+02
 note that "loc psp" includes a xc core correction that could be resolved
 7,8,9: eventually, occupation + non-local contributions
    edocc=   0.00000000E+00     enl0=   2.70169027E+03   enl1=  -1.07939594E+04
 1-9 gives the relaxation energy (to be shifted if some occ is /=2.0)
   erelax=  -9.89168954E+03
 10,11,12 Non-relaxation  contributions : frozen-wavefunctions and Ewald
 fr.local=   3.89999147E+03 fr.nonlo=   5.39690167E+03  Ewald=   6.00051265E+02
 13,14 Frozen wf xc core corrections (1) and (2)
 frxc 1  =   0.00000000E+00  frxc 2 =   0.00000000E+00
 Resulting in :
 2DEtotal=    0.5254856333E+01 Ha. Also 2DEtotal=    0.142991912794E+03 eV
    (2DErelax=   -9.8916895428E+03 Ha. 2DEnonrelax=    9.8969443991E+03 Ha)
    (  non-var. 2DEtotal :    5.2548548939E+00 Ha)


--------------------------------------------------------------------------------
 Perturbation wavevector (in red.coord.)   0.500000  0.000000  0.000000
 Perturbation : displacement of atom   1   along direction   2
 Found     2 symmetries that leave the perturbation invariant.
 symkpt : the number of k-points, thanks to the symmetries,
 is reduced to   256 .

--------------------------------------------------------------------------------

-inwffil : will read wavefunctions from disk file perovskite-Gamma_o_DS1_WFK
- newkpt: read input wf with ikpt,npw=   1    5020, make ikpt,npw=   1    5020
- newkpt: read input wf with ikpt,npw=   2    5028, make ikpt,npw=   2    5028
- newkpt: read input wf with ikpt,npw=   3    5035, make ikpt,npw=   3    5035
- newkpt: read input wf with ikpt,npw=   4    5023, make ikpt,npw=   4    5023
- newkpt: read input wf with ikpt,npw=   4    5023, make ikpt,npw=   5    5023
- newkpt: read input wf with ikpt,npw=   3    5035, make ikpt,npw=   6    5035
- newkpt: read input wf with ikpt,npw=   2    5028, make ikpt,npw=   7    5028
- newkpt: read input wf with ikpt,npw=   1    5020, make ikpt,npw=   8    5020
- newkpt: read input wf with ikpt,npw=   2    5028, make ikpt,npw=   9    5028
- newkpt: read input wf with ikpt,npw=   5    5030, make ikpt,npw=  10    5030
- newkpt: read input wf with ikpt,npw=   6    5036, make ikpt,npw=  11    5036
- newkpt: read input wf with ikpt,npw=   7    5026, make ikpt,npw=  12    5026
- newkpt: read input wf with ikpt,npw=   7    5026, make ikpt,npw=  13    5026
- newkpt: read input wf with ikpt,npw=   6    5036, make ikpt,npw=  14    5036
- newkpt: read input wf with ikpt,npw=   5    5030, make ikpt,npw=  15    5030
- newkpt: read input wf with ikpt,npw=   2    5028, make ikpt,npw=  16    5028
- newkpt: read input wf with ikpt,npw=   3    5035, make ikpt,npw=  17    5035
- newkpt: read input wf with ikpt,npw=   6    5036, make ikpt,npw=  18    5036
- newkpt: read input wf with ikpt,npw=   8    5030, make ikpt,npw=  19    5030
- newkpt: read input wf with ikpt,npw=   9    5028, make ikpt,npw=  20    5028
- newkpt: read input wf with ikpt,npw=   9    5028, make ikpt,npw=  21    5028
- newkpt: read input wf with ikpt,npw=   8    5030, make ikpt,npw=  22    5030
- newkpt: read input wf with ikpt,npw=   6    5036, make ikpt,npw=  23    5036
- newkpt: read input wf with ikpt,npw=   3    5035, make ikpt,npw=  24    5035
- newkpt: read input wf with ikpt,npw=   4    5023, make ikpt,npw=  25    5023
- newkpt: read input wf with ikpt,npw=   7    5026, make ikpt,npw=  26    5026
- newkpt: read input wf with ikpt,npw=   9    5028, make ikpt,npw=  27    5028
- newkpt: read input wf with ikpt,npw=  10    5035, make ikpt,npw=  28    5035
- newkpt: read input wf with ikpt,npw=  10    5035, make ikpt,npw=  29    5035
- newkpt: read input wf with ikpt,npw=   9    5028, make ikpt,npw=  30    5028
- newkpt: read input wf with ikpt,npw=   7    5026, make ikpt,npw=  31    5026
- newkpt: read input wf with ikpt,npw=   4    5023, make ikpt,npw=  32    5023
- newkpt: read input wf with ikpt,npw=   4    5023, make ikpt,npw=  33    5023
- newkpt: read input wf with ikpt,npw=   7    5026, make ikpt,npw=  34    5026
- newkpt: read input wf with ikpt,npw=   9    5028, make ikpt,npw=  35    5028
- newkpt: read input wf with ikpt,npw=  10    5035, make ikpt,npw=  36    5035
- newkpt: read input wf with ikpt,npw=  10    5035, make ikpt,npw=  37    5035
- newkpt: read input wf with ikpt,npw=   9    5028, make ikpt,npw=  38    5028
- newkpt: read input wf with ikpt,npw=   7    5026, make ikpt,npw=  39    5026
- newkpt: read input wf with ikpt,npw=   4    5023, make ikpt,npw=  40    5023
- newkpt: read input wf with ikpt,npw=   3    5035, make ikpt,npw=  41    5035
- newkpt: read input wf with ikpt,npw=   6    5036, make ikpt,npw=  42    5036
- newkpt: read input wf with ikpt,npw=   8    5030, make ikpt,npw=  43    5030
- newkpt: read input wf with ikpt,npw=   9    5028, make ikpt,npw=  44    5028
- newkpt: read input wf with ikpt,npw=   9    5028, make ikpt,npw=  45    5028
- newkpt: read input wf with ikpt,npw=   8    5030, make ikpt,npw=  46    5030
- newkpt: read input wf with ikpt,npw=   6    5036, make ikpt,npw=  47    5036
- newkpt: read input wf with ikpt,npw=   3    5035, make ikpt,npw=  48    5035
- newkpt: read input wf with ikpt,npw=   2    5028, make ikpt,npw=  49    5028
- newkpt: read input wf with ikpt,npw=   5    5030, make ikpt,npw=  50    5030
- newkpt : prtvol=0 or 1, do not print more k-points.
 
--------------------------------------------------------------------------------

-inwffil : will read wavefunctions from disk file perovskite-Gamma_o_DS1_WFK
- newkpt: read input wf with ikpt,npw=   4    5023, make ikpt,npw=   1    5023
- newkpt: read input wf with ikpt,npw=   3    5035, make ikpt,npw=   2    5035
- newkpt: read input wf with ikpt,npw=   2    5028, make ikpt,npw=   3    5028
- newkpt: read input wf with ikpt,npw=   1    5020, make ikpt,npw=   4    5020
- newkpt: read input wf with ikpt,npw=   1    5020, make ikpt,npw=   5    5020
- newkpt: read input wf with ikpt,npw=   2    5028, make ikpt,npw=   6    5028
- newkpt: read input wf with ikpt,npw=   3    5035, make ikpt,npw=   7    5035
- newkpt: read input wf with ikpt,npw=   4    5023, make ikpt,npw=   8    5023
- newkpt: read input wf with ikpt,npw=   7    5026, make ikpt,npw=   9    5026
- newkpt: read input wf with ikpt,npw=   6    5036, make ikpt,npw=  10    5036
- newkpt: read input wf with ikpt,npw=   5    5030, make ikpt,npw=  11    5030
- newkpt: read input wf with ikpt,npw=   2    5028, make ikpt,npw=  12    5028
- newkpt: read input wf with ikpt,npw=   2    5028, make ikpt,npw=  13    5028
- newkpt: read input wf with ikpt,npw=   5    5030, make ikpt,npw=  14    5030
- newkpt: read input wf with ikpt,npw=   6    5036, make ikpt,npw=  15    5036
- newkpt: read input wf with ikpt,npw=   7    5026, make ikpt,npw=  16    5026
- newkpt: read input wf with ikpt,npw=   9    5028, make ikpt,npw=  17    5028
- newkpt: read input wf with ikpt,npw=   8    5030, make ikpt,npw=  18    5030
- newkpt: read input wf with ikpt,npw=   6    5036, make ikpt,npw=  19    5036
- newkpt: read input wf with ikpt,npw=   3    5035, make ikpt,npw=  20    5035
- newkpt: read input wf with ikpt,npw=   3    5035, make ikpt,npw=  21    5035
- newkpt: read input wf with ikpt,npw=   6    5036, make ikpt,npw=  22    5036
- newkpt: read input wf with ikpt,npw=   8    5030, make ikpt,npw=  23    5030
- newkpt: read input wf with ikpt,npw=   9    5028, make ikpt,npw=  24    5028
- newkpt: read input wf with ikpt,npw=  10    5035, make ikpt,npw=  25    5035
- newkpt: read input wf with ikpt,npw=   9    5028, make ikpt,npw=  26    5028
- newkpt: read input wf with ikpt,npw=   7    5026, make ikpt,npw=  27    5026
- newkpt: read input wf with ikpt,npw=   4    5023, make ikpt,npw=  28    5023
- newkpt: read input wf with ikpt,npw=   4    5023, make ikpt,npw=  29    5023
- newkpt: read input wf with ikpt,npw=   7    5026, make ikpt,npw=  30    5026
- newkpt: read input wf with ikpt,npw=   9    5028, make ikpt,npw=  31    5028
- newkpt: read input wf with ikpt,npw=  10    5035, make ikpt,npw=  32    5035
- newkpt: read input wf with ikpt,npw=  10    5035, make ikpt,npw=  33    5035
- newkpt: read input wf with ikpt,npw=   9    5028, make ikpt,npw=  34    5028
- newkpt: read input wf with ikpt,npw=   7    5026, make ikpt,npw=  35    5026
- newkpt: read input wf with ikpt,npw=   4    5023, make ikpt,npw=  36    5023
- newkpt: read input wf with ikpt,npw=   4    5023, make ikpt,npw=  37    5023
- newkpt: read input wf with ikpt,npw=   7    5026, make ikpt,npw=  38    5026
- newkpt: read input wf with ikpt,npw=   9    5028, make ikpt,npw=  39    5028
- newkpt: read input wf with ikpt,npw=  10    5035, make ikpt,npw=  40    5035
- newkpt: read input wf with ikpt,npw=   9    5028, make ikpt,npw=  41    5028
- newkpt: read input wf with ikpt,npw=   8    5030, make ikpt,npw=  42    5030
- newkpt: read input wf with ikpt,npw=   6    5036, make ikpt,npw=  43    5036
- newkpt: read input wf with ikpt,npw=   3    5035, make ikpt,npw=  44    5035
- newkpt: read input wf with ikpt,npw=   3    5035, make ikpt,npw=  45    5035
- newkpt: read input wf with ikpt,npw=   6    5036, make ikpt,npw=  46    5036
- newkpt: read input wf with ikpt,npw=   8    5030, make ikpt,npw=  47    5030
- newkpt: read input wf with ikpt,npw=   9    5028, make ikpt,npw=  48    5028
- newkpt: read input wf with ikpt,npw=   7    5026, make ikpt,npw=  49    5026
- newkpt: read input wf with ikpt,npw=   6    5036, make ikpt,npw=  50    5036
- newkpt : prtvol=0 or 1, do not print more k-points.
 
 Initialisation of the first-order wave-functions :
  ireadwf=   0
P newkpt: treating     22 bands with npw=    5023 for ikpt=   1
P newkpt: treating     22 bands with npw=    5035 for ikpt=   2
P newkpt: treating     22 bands with npw=    5028 for ikpt=   3
P newkpt: treating     22 bands with npw=    5020 for ikpt=   4
P newkpt: treating     22 bands with npw=    5020 for ikpt=   5
P newkpt: treating     22 bands with npw=    5028 for ikpt=   6
P newkpt: treating     22 bands with npw=    5035 for ikpt=   7
P newkpt: treating     22 bands with npw=    5023 for ikpt=   8
P newkpt: treating     22 bands with npw=    5026 for ikpt=   9
P newkpt: treating     22 bands with npw=    5036 for ikpt=  10
P newkpt: treating     22 bands with npw=    5030 for ikpt=  11
P newkpt: treating     22 bands with npw=    5028 for ikpt=  12
P newkpt: treating     22 bands with npw=    5028 for ikpt=  13
P newkpt: treating     22 bands with npw=    5030 for ikpt=  14
P newkpt: treating     22 bands with npw=    5036 for ikpt=  15
P newkpt: treating     22 bands with npw=    5026 for ikpt=  16
P newkpt: treating     22 bands with npw=    5028 for ikpt=  17
P newkpt: treating     22 bands with npw=    5030 for ikpt=  18
P newkpt: treating     22 bands with npw=    5036 for ikpt=  19
P newkpt: treating     22 bands with npw=    5035 for ikpt=  20
P newkpt: treating     22 bands with npw=    5035 for ikpt=  21
P newkpt: treating     22 bands with npw=    5036 for ikpt=  22
P newkpt: treating     22 bands with npw=    5030 for ikpt=  23
P newkpt: treating     22 bands with npw=    5028 for ikpt=  24
P newkpt: treating     22 bands with npw=    5035 for ikpt=  25
P newkpt: treating     22 bands with npw=    5028 for ikpt=  26
P newkpt: treating     22 bands with npw=    5026 for ikpt=  27
P newkpt: treating     22 bands with npw=    5023 for ikpt=  28
P newkpt: treating     22 bands with npw=    5023 for ikpt=  29
P newkpt: treating     22 bands with npw=    5026 for ikpt=  30
P newkpt: treating     22 bands with npw=    5028 for ikpt=  31
P newkpt: treating     22 bands with npw=    5035 for ikpt=  32
P newkpt: treating     22 bands with npw=    5035 for ikpt=  33
P newkpt: treating     22 bands with npw=    5028 for ikpt=  34
P newkpt: treating     22 bands with npw=    5026 for ikpt=  35
P newkpt: treating     22 bands with npw=    5023 for ikpt=  36
P newkpt: treating     22 bands with npw=    5023 for ikpt=  37
P newkpt: treating     22 bands with npw=    5026 for ikpt=  38
P newkpt: treating     22 bands with npw=    5028 for ikpt=  39
P newkpt: treating     22 bands with npw=    5035 for ikpt=  40
P newkpt: treating     22 bands with npw=    5028 for ikpt=  41
P newkpt: treating     22 bands with npw=    5030 for ikpt=  42
P newkpt: treating     22 bands with npw=    5036 for ikpt=  43
P newkpt: treating     22 bands with npw=    5035 for ikpt=  44
P newkpt: treating     22 bands with npw=    5035 for ikpt=  45
P newkpt: treating     22 bands with npw=    5036 for ikpt=  46
P newkpt: treating     22 bands with npw=    5030 for ikpt=  47
P newkpt: treating     22 bands with npw=    5028 for ikpt=  48
P newkpt: treating     22 bands with npw=    5026 for ikpt=  49
P newkpt: treating     22 bands with npw=    5036 for ikpt=  50
  newkpt: prtvol=0 or 1, do not print more k-points.
 

     iter   2DEtotal(Ha)        deltaE(Ha) residm    vres2
-ETOT  1   3401.6030245630     -6.114E+03 5.547E+01 9.735E+06
 ETOT  2   189.59263544646     -3.212E+03 1.004E+01 6.608E+05
 ETOT  3   17.668246729132     -1.719E+02 1.976E+00 5.165E+04
 ETOT  4   5.8559335072387     -1.181E+01 4.689E-02 2.517E+04
 ETOT  5  0.41777606455616     -5.438E+00 7.211E-02 1.130E+02
 ETOT  6  0.71972978557642      3.020E-01 1.494E-02 1.824E+03
 ETOT  7  0.52318754113367     -1.965E-01 2.110E-03 1.095E+03
 ETOT  8   1.3527398763435      8.296E-01 6.197E-03 2.520E+03
 ETOT  9  0.52293988016390     -8.298E-01 1.806E-03 1.137E+03
 ETOT 10  0.43761273362907     -8.533E-02 3.021E-04 6.320E+02
 ETOT 11  0.33620567146136     -1.014E-01 1.614E-03 5.397E+00
 ETOT 12  0.33409288660550     -2.113E-03 1.561E-05 1.288E+00
 ETOT 13  0.33373288808434     -3.600E-04 1.729E-05 4.114E-01
 ETOT 14  0.33360448034364     -1.284E-04 5.065E-06 1.091E-01
 ETOT 15  0.33357984364375     -2.464E-05 2.240E-06 3.023E-02
 ETOT 16  0.33357372027785     -6.123E-06 8.900E-07 7.667E-03
 ETOT 17  0.33357219035679     -1.530E-06 4.342E-07 5.709E-04
 ETOT 18  0.33357204831918     -1.420E-07 1.436E-07 2.939E-04
 ETOT 19  0.33357196747602     -8.084E-08 9.548E-08 5.639E-05
 ETOT 20  0.33357194754717     -1.993E-08 3.514E-08 2.053E-06
 ETOT 21  0.33357194238852     -5.159E-09 2.248E-08 8.770E-07
 ETOT 22  0.33357194006567     -2.323E-09 8.549E-09 4.501E-08
 ETOT 23  0.33357193919255     -8.731E-10 5.333E-09 3.053E-08
 ETOT 24  0.33357193899610     -1.965E-10 2.023E-09 5.537E-07
 ETOT 25  0.33357193865959     -3.365E-10 1.290E-09 4.207E-08
 ETOT 26  0.33357193859956     -6.003E-11 4.957E-10 1.370E-08
 ETOT 27  0.33357193855591     -4.366E-11 3.098E-10 2.129E-09

 At SCF step   27       vres2   =  2.13E-09 < tolvrs=  1.00E-08 =>converged.
================================================================================

 ----iterations are completed or convergence reached----

 Mean square residual over all n,k,spin=   2.4414E-13; max=  3.0983E-10
   0.0625  0.0625  0.0625    1  5.14859E-14 kpt; spin; max resid(k); each band:
 9.88E-17 1.20E-16 6.94E-17 1.65E-16 2.04E-15 1.97E-15 3.80E-15 1.08E-15
 1.18E-15 1.07E-15 8.39E-16 1.01E-15 2.48E-15 4.79E-16 3.64E-16 1.36E-15
 2.44E-14 4.69E-14 5.15E-14 4.39E-15 3.11E-14 1.43E-14
   0.1875  0.0625  0.0625    1  5.41664E-14 kpt; spin; max resid(k); each band:
 9.44E-17 2.28E-16 8.11E-17 8.09E-17 1.97E-15 3.26E-15 1.81E-15 7.95E-16
 8.33E-16 1.73E-15 1.77E-15 1.34E-15 2.64E-15 6.52E-16 7.90E-16 3.16E-15
 1.82E-14 5.42E-14 1.79E-14 2.74E-14 2.34E-14 3.14E-14
   0.3125  0.0625  0.0625    1  2.14958E-12 kpt; spin; max resid(k); each band:
 1.02E-16 3.36E-17 8.54E-17 8.55E-17 8.29E-16 2.58E-15 1.43E-15 8.70E-16
 7.77E-16 1.66E-15 2.65E-15 6.99E-16 2.42E-15 8.36E-16 4.70E-15 5.41E-15
 1.50E-14 1.69E-14 2.98E-14 2.46E-14 9.32E-15 2.15E-12
   0.4375  0.0625  0.0625    1  3.09829E-10 kpt; spin; max resid(k); each band:
 1.17E-16 3.54E-17 9.04E-17 9.04E-17 2.97E-16 4.68E-15 1.22E-16 9.67E-16
 7.90E-16 7.63E-16 1.32E-15 4.38E-16 6.00E-16 8.44E-16 7.33E-15 6.34E-15
 1.27E-14 9.18E-15 3.17E-14 1.60E-13 2.76E-14 3.10E-10
  -0.4375  0.0625  0.0625    1  3.09829E-10 kpt; spin; max resid(k); each band:
 1.17E-16 3.54E-17 9.04E-17 9.04E-17 2.97E-16 4.68E-15 1.22E-16 9.67E-16
 7.90E-16 7.63E-16 1.32E-15 4.38E-16 6.00E-16 8.44E-16 7.33E-15 6.34E-15
 1.27E-14 9.18E-15 3.17E-14 1.60E-13 2.76E-14 3.10E-10
  -0.3125  0.0625  0.0625    1  2.14958E-12 kpt; spin; max resid(k); each band:
 1.02E-16 3.36E-17 8.54E-17 8.55E-17 8.29E-16 2.58E-15 1.43E-15 8.70E-16
 7.77E-16 1.66E-15 2.65E-15 6.99E-16 2.42E-15 8.36E-16 4.70E-15 5.41E-15
 1.50E-14 1.69E-14 2.98E-14 2.46E-14 9.32E-15 2.15E-12
  -0.1875  0.0625  0.0625    1  5.41664E-14 kpt; spin; max resid(k); each band:
 9.44E-17 2.28E-16 8.11E-17 8.09E-17 1.97E-15 3.26E-15 1.81E-15 7.95E-16
 8.33E-16 1.73E-15 1.77E-15 1.34E-15 2.64E-15 6.52E-16 7.90E-16 3.16E-15
 1.82E-14 5.42E-14 1.79E-14 2.74E-14 2.34E-14 3.14E-14
  -0.0625  0.0625  0.0625    1  5.14859E-14 kpt; spin; max resid(k); each band:
 9.88E-17 1.20E-16 6.94E-17 1.65E-16 2.04E-15 1.97E-15 3.80E-15 1.08E-15
 1.18E-15 1.07E-15 8.39E-16 1.01E-15 2.48E-15 4.79E-16 3.64E-16 1.36E-15
 2.44E-14 4.69E-14 5.15E-14 4.39E-15 3.11E-14 1.43E-14
   0.0625  0.1875  0.0625    1  1.73577E-14 kpt; spin; max resid(k); each band:
 1.42E-16 1.33E-16 1.07E-16 1.29E-16 2.27E-15 1.02E-15 2.01E-15 1.81E-15
 3.18E-15 3.63E-16 7.89E-16 3.85E-15 1.63E-15 8.31E-16 6.74E-16 1.36E-15
 5.37E-15 7.58E-15 7.79E-15 5.82E-15 7.54E-15 1.74E-14
   0.1875  0.1875  0.0625    1  4.95061E-14 kpt; spin; max resid(k); each band:
 1.38E-16 1.79E-16 1.69E-16 3.04E-17 1.84E-15 1.18E-15 1.03E-15 1.72E-15
 8.32E-16 9.39E-16 8.69E-16 1.69E-15 1.05E-15 4.30E-16 5.30E-16 1.27E-15
 9.10E-15 2.92E-15 3.03E-15 1.68E-14 3.17E-14 4.95E-14
   0.3125  0.1875  0.0625    1  1.17866E-13 kpt; spin; max resid(k); each band:
 1.53E-16 2.49E-16 1.45E-16 3.09E-17 1.41E-15 1.08E-15 1.63E-15 8.39E-16
 7.67E-16 1.33E-15 1.89E-15 9.84E-16 9.26E-16 4.94E-16 2.01E-15 1.58E-15
 4.71E-15 7.55E-15 7.79E-15 3.98E-15 5.08E-14 1.18E-13
   0.4375  0.1875  0.0625    1  5.12471E-12 kpt; spin; max resid(k); each band:
 1.05E-16 3.70E-17 1.55E-16 3.47E-17 8.36E-16 7.90E-16 1.97E-15 1.10E-15
 6.18E-16 1.51E-15 2.25E-15 4.17E-16 8.10E-16 2.92E-15 4.86E-15 5.32E-15
 5.70E-15 5.55E-15 5.50E-15 3.26E-14 4.27E-14 5.12E-12
  -0.4375  0.1875  0.0625    1  5.12471E-12 kpt; spin; max resid(k); each band:
 1.05E-16 3.70E-17 1.55E-16 3.47E-17 8.36E-16 7.90E-16 1.97E-15 1.10E-15
 6.18E-16 1.51E-15 2.25E-15 4.17E-16 8.10E-16 2.92E-15 4.86E-15 5.32E-15
 5.70E-15 5.55E-15 5.50E-15 3.26E-14 4.27E-14 5.12E-12
  -0.3125  0.1875  0.0625    1  1.17866E-13 kpt; spin; max resid(k); each band:
 1.53E-16 2.49E-16 1.45E-16 3.09E-17 1.41E-15 1.08E-15 1.63E-15 8.39E-16
 7.67E-16 1.33E-15 1.89E-15 9.84E-16 9.26E-16 4.94E-16 2.01E-15 1.58E-15
 4.71E-15 7.55E-15 7.79E-15 3.98E-15 5.08E-14 1.18E-13
  -0.1875  0.1875  0.0625    1  4.95061E-14 kpt; spin; max resid(k); each band:
 1.38E-16 1.79E-16 1.69E-16 3.04E-17 1.84E-15 1.18E-15 1.03E-15 1.72E-15
 8.32E-16 9.39E-16 8.69E-16 1.69E-15 1.05E-15 4.30E-16 5.30E-16 1.27E-15
 9.10E-15 2.92E-15 3.03E-15 1.68E-14 3.17E-14 4.95E-14
  -0.0625  0.1875  0.0625    1  1.73577E-14 kpt; spin; max resid(k); each band:
 1.42E-16 1.33E-16 1.07E-16 1.29E-16 2.27E-15 1.02E-15 2.01E-15 1.81E-15
 3.18E-15 3.63E-16 7.89E-16 3.85E-15 1.63E-15 8.31E-16 6.74E-16 1.36E-15
 5.37E-15 7.58E-15 7.79E-15 5.82E-15 7.54E-15 1.74E-14
   0.0625  0.3125  0.0625    1  4.80639E-14 kpt; spin; max resid(k); each band:
 1.51E-16 1.31E-16 1.00E-16 1.33E-16 2.48E-15 7.30E-16 1.32E-15 1.19E-15
 1.72E-15 2.99E-16 1.07E-15 1.93E-15 1.43E-15 1.40E-15 1.57E-15 1.25E-15
 4.45E-15 3.05E-15 9.59E-15 9.98E-15 8.52E-15 4.81E-14
   0.1875  0.3125  0.0625    1  1.17725E-13 kpt; spin; max resid(k); each band:
 1.51E-16 1.38E-16 1.95E-16 2.88E-17 1.81E-15 5.85E-16 1.70E-15 1.74E-15
 1.53E-15 5.35E-16 1.28E-15 1.04E-15 1.38E-15 1.16E-15 1.44E-15 1.24E-15
 3.58E-15 3.87E-15 3.92E-15 3.84E-15 2.96E-14 1.18E-13
   0.3125  0.3125  0.0625    1  2.72493E-13 kpt; spin; max resid(k); each band:
 1.43E-16 1.98E-16 1.86E-16 3.02E-17 1.76E-15 1.48E-15 1.44E-15 7.60E-16
 8.47E-16 9.62E-16 1.63E-15 2.52E-15 1.30E-15 2.28E-16 3.96E-15 2.90E-15
 2.61E-15 5.23E-15 4.53E-15 4.27E-15 2.72E-13 1.98E-13
   0.4375  0.3125  0.0625    1  4.34936E-13 kpt; spin; max resid(k); each band:
 1.03E-16 2.60E-16 1.60E-16 3.06E-17 1.67E-15 1.63E-15 1.75E-15 1.06E-15
 1.39E-15 6.14E-16 1.57E-15 2.19E-15 1.20E-15 4.73E-15 2.15E-15 3.38E-15
 1.67E-15 4.57E-15 3.31E-15 3.35E-15 4.35E-13 3.78E-13
  -0.4375  0.3125  0.0625    1  4.34936E-13 kpt; spin; max resid(k); each band:
 1.03E-16 2.60E-16 1.60E-16 3.06E-17 1.67E-15 1.63E-15 1.75E-15 1.06E-15
 1.39E-15 6.14E-16 1.57E-15 2.19E-15 1.20E-15 4.73E-15 2.15E-15 3.38E-15
 1.67E-15 4.57E-15 3.31E-15 3.35E-15 4.35E-13 3.78E-13
  -0.3125  0.3125  0.0625    1  2.72493E-13 kpt; spin; max resid(k); each band:
 1.43E-16 1.98E-16 1.86E-16 3.02E-17 1.76E-15 1.48E-15 1.44E-15 7.60E-16
 8.47E-16 9.62E-16 1.63E-15 2.52E-15 1.30E-15 2.28E-16 3.96E-15 2.90E-15
 2.61E-15 5.23E-15 4.53E-15 4.27E-15 2.72E-13 1.98E-13
  -0.1875  0.3125  0.0625    1  1.17725E-13 kpt; spin; max resid(k); each band:
 1.51E-16 1.38E-16 1.95E-16 2.88E-17 1.81E-15 5.85E-16 1.70E-15 1.74E-15
 1.53E-15 5.35E-16 1.28E-15 1.04E-15 1.38E-15 1.16E-15 1.44E-15 1.24E-15
 3.58E-15 3.87E-15 3.92E-15 3.84E-15 2.96E-14 1.18E-13
  -0.0625  0.3125  0.0625    1  4.80639E-14 kpt; spin; max resid(k); each band:
 1.51E-16 1.31E-16 1.00E-16 1.33E-16 2.48E-15 7.30E-16 1.32E-15 1.19E-15
 1.72E-15 2.99E-16 1.07E-15 1.93E-15 1.43E-15 1.40E-15 1.57E-15 1.25E-15
 4.45E-15 3.05E-15 9.59E-15 9.98E-15 8.52E-15 4.81E-14
   0.0625  0.4375  0.0625    1  2.07086E-13 kpt; spin; max resid(k); each band:
 1.54E-16 1.31E-16 9.66E-17 9.47E-17 2.46E-15 5.15E-16 1.48E-15 1.15E-15
 1.27E-15 1.48E-15 3.01E-16 3.79E-15 2.32E-15 1.69E-15 1.18E-15 1.19E-15
 2.22E-15 3.75E-15 1.81E-14 8.73E-15 9.53E-15 2.07E-13
   0.1875  0.4375  0.0625    1  3.65738E-14 kpt; spin; max resid(k); each band:
 1.55E-16 1.40E-16 2.77E-16 3.35E-17 1.79E-15 1.83E-15 9.97E-16 1.10E-15
 1.23E-15 5.14E-16 2.60E-15 3.86E-15 1.56E-15 2.15E-15 2.19E-15 1.74E-15
 1.37E-15 1.43E-15 6.97E-15 3.44E-15 3.08E-14 3.66E-14
   0.3125  0.4375  0.0625    1  9.14970E-13 kpt; spin; max resid(k); each band:
 1.51E-16 1.53E-16 2.69E-16 3.36E-17 1.89E-15 1.72E-15 6.46E-16 8.38E-16
 7.43E-16 8.35E-16 1.83E-15 2.42E-15 1.47E-15 3.95E-15 1.18E-15 2.78E-15
 2.55E-15 3.62E-15 2.17E-15 1.25E-15 4.27E-14 9.15E-13
   0.4375  0.4375  0.0625    1  8.93298E-12 kpt; spin; max resid(k); each band:
 1.11E-16 2.03E-16 2.03E-16 3.37E-17 2.11E-15 1.06E-15 9.53E-16 6.84E-16
 1.02E-15 6.31E-16 1.49E-15 1.90E-15 1.34E-15 8.93E-15 2.47E-16 4.96E-15
 2.04E-15 3.81E-15 1.43E-14 4.42E-15 1.59E-13 8.93E-12
  -0.4375  0.4375  0.0625    1  8.93298E-12 kpt; spin; max resid(k); each band:
 1.11E-16 2.03E-16 2.03E-16 3.37E-17 2.11E-15 1.06E-15 9.53E-16 6.84E-16
 1.02E-15 6.31E-16 1.49E-15 1.90E-15 1.34E-15 8.93E-15 2.47E-16 4.96E-15
 2.04E-15 3.81E-15 1.43E-14 4.42E-15 1.59E-13 8.93E-12
  -0.3125  0.4375  0.0625    1  9.14970E-13 kpt; spin; max resid(k); each band:
 1.51E-16 1.53E-16 2.69E-16 3.36E-17 1.89E-15 1.72E-15 6.46E-16 8.38E-16
 7.43E-16 8.35E-16 1.83E-15 2.42E-15 1.47E-15 3.95E-15 1.18E-15 2.78E-15
 2.55E-15 3.62E-15 2.17E-15 1.25E-15 4.27E-14 9.15E-13
  -0.1875  0.4375  0.0625    1  3.65738E-14 kpt; spin; max resid(k); each band:
 1.55E-16 1.40E-16 2.77E-16 3.35E-17 1.79E-15 1.83E-15 9.97E-16 1.10E-15
 1.23E-15 5.14E-16 2.60E-15 3.86E-15 1.56E-15 2.15E-15 2.19E-15 1.74E-15
 1.37E-15 1.43E-15 6.97E-15 3.44E-15 3.08E-14 3.66E-14
  -0.0625  0.4375  0.0625    1  2.07086E-13 kpt; spin; max resid(k); each band:
 1.54E-16 1.31E-16 9.66E-17 9.47E-17 2.46E-15 5.15E-16 1.48E-15 1.15E-15
 1.27E-15 1.48E-15 3.01E-16 3.79E-15 2.32E-15 1.69E-15 1.18E-15 1.19E-15
 2.22E-15 3.75E-15 1.81E-14 8.73E-15 9.53E-15 2.07E-13
   0.0625 -0.4375  0.0625    1  2.07086E-13 kpt; spin; max resid(k); each band:
 1.54E-16 1.31E-16 9.66E-17 9.47E-17 2.46E-15 5.15E-16 1.48E-15 1.15E-15
 1.27E-15 1.48E-15 3.01E-16 3.79E-15 2.32E-15 1.69E-15 1.18E-15 1.19E-15
 2.22E-15 3.75E-15 1.81E-14 8.73E-15 9.53E-15 2.07E-13
   0.1875 -0.4375  0.0625    1  3.65738E-14 kpt; spin; max resid(k); each band:
 1.55E-16 1.40E-16 2.77E-16 3.35E-17 1.79E-15 1.83E-15 9.97E-16 1.10E-15
 1.23E-15 5.14E-16 2.60E-15 3.86E-15 1.56E-15 2.15E-15 2.19E-15 1.74E-15
 1.37E-15 1.43E-15 6.97E-15 3.44E-15 3.08E-14 3.66E-14
   0.3125 -0.4375  0.0625    1  9.14970E-13 kpt; spin; max resid(k); each band:
 1.51E-16 1.53E-16 2.69E-16 3.36E-17 1.89E-15 1.72E-15 6.46E-16 8.38E-16
 7.43E-16 8.35E-16 1.83E-15 2.42E-15 1.47E-15 3.95E-15 1.18E-15 2.78E-15
 2.55E-15 3.62E-15 2.17E-15 1.25E-15 4.27E-14 9.15E-13
   0.4375 -0.4375  0.0625    1  8.93298E-12 kpt; spin; max resid(k); each band:
 1.11E-16 2.03E-16 2.03E-16 3.37E-17 2.11E-15 1.06E-15 9.53E-16 6.84E-16
 1.02E-15 6.31E-16 1.49E-15 1.90E-15 1.34E-15 8.93E-15 2.47E-16 4.96E-15
 2.04E-15 3.81E-15 1.43E-14 4.42E-15 1.59E-13 8.93E-12
  -0.4375 -0.4375  0.0625    1  8.93298E-12 kpt; spin; max resid(k); each band:
 1.11E-16 2.03E-16 2.03E-16 3.37E-17 2.11E-15 1.06E-15 9.53E-16 6.84E-16
 1.02E-15 6.31E-16 1.49E-15 1.90E-15 1.34E-15 8.93E-15 2.47E-16 4.96E-15
 2.04E-15 3.81E-15 1.43E-14 4.42E-15 1.59E-13 8.93E-12
  -0.3125 -0.4375  0.0625    1  9.14970E-13 kpt; spin; max resid(k); each band:
 1.51E-16 1.53E-16 2.69E-16 3.36E-17 1.89E-15 1.72E-15 6.46E-16 8.38E-16
 7.43E-16 8.35E-16 1.83E-15 2.42E-15 1.47E-15 3.95E-15 1.18E-15 2.78E-15
 2.55E-15 3.62E-15 2.17E-15 1.25E-15 4.27E-14 9.15E-13
  -0.1875 -0.4375  0.0625    1  3.65738E-14 kpt; spin; max resid(k); each band:
 1.55E-16 1.40E-16 2.77E-16 3.35E-17 1.79E-15 1.83E-15 9.97E-16 1.10E-15
 1.23E-15 5.14E-16 2.60E-15 3.86E-15 1.56E-15 2.15E-15 2.19E-15 1.74E-15
 1.37E-15 1.43E-15 6.97E-15 3.44E-15 3.08E-14 3.66E-14
  -0.0625 -0.4375  0.0625    1  2.07086E-13 kpt; spin; max resid(k); each band:
 1.54E-16 1.31E-16 9.66E-17 9.47E-17 2.46E-15 5.15E-16 1.48E-15 1.15E-15
 1.27E-15 1.48E-15 3.01E-16 3.79E-15 2.32E-15 1.69E-15 1.18E-15 1.19E-15
 2.22E-15 3.75E-15 1.81E-14 8.73E-15 9.53E-15 2.07E-13
   0.0625 -0.3125  0.0625    1  4.80639E-14 kpt; spin; max resid(k); each band:
 1.51E-16 1.31E-16 1.00E-16 1.33E-16 2.48E-15 7.30E-16 1.32E-15 1.19E-15
 1.72E-15 2.99E-16 1.07E-15 1.93E-15 1.43E-15 1.40E-15 1.57E-15 1.25E-15
 4.45E-15 3.05E-15 9.59E-15 9.98E-15 8.52E-15 4.81E-14
   0.1875 -0.3125  0.0625    1  1.17725E-13 kpt; spin; max resid(k); each band:
 1.51E-16 1.38E-16 1.95E-16 2.88E-17 1.81E-15 5.85E-16 1.70E-15 1.74E-15
 1.53E-15 5.35E-16 1.28E-15 1.04E-15 1.38E-15 1.16E-15 1.44E-15 1.24E-15
 3.58E-15 3.87E-15 3.92E-15 3.84E-15 2.96E-14 1.18E-13
   0.3125 -0.3125  0.0625    1  2.72493E-13 kpt; spin; max resid(k); each band:
 1.43E-16 1.98E-16 1.86E-16 3.02E-17 1.76E-15 1.48E-15 1.44E-15 7.60E-16
 8.47E-16 9.62E-16 1.63E-15 2.52E-15 1.30E-15 2.28E-16 3.96E-15 2.90E-15
 2.61E-15 5.23E-15 4.53E-15 4.27E-15 2.72E-13 1.98E-13
   0.4375 -0.3125  0.0625    1  4.34936E-13 kpt; spin; max resid(k); each band:
 1.03E-16 2.60E-16 1.60E-16 3.06E-17 1.67E-15 1.63E-15 1.75E-15 1.06E-15
 1.39E-15 6.14E-16 1.57E-15 2.19E-15 1.20E-15 4.73E-15 2.15E-15 3.38E-15
 1.67E-15 4.57E-15 3.31E-15 3.35E-15 4.35E-13 3.78E-13
  -0.4375 -0.3125  0.0625    1  4.34936E-13 kpt; spin; max resid(k); each band:
 1.03E-16 2.60E-16 1.60E-16 3.06E-17 1.67E-15 1.63E-15 1.75E-15 1.06E-15
 1.39E-15 6.14E-16 1.57E-15 2.19E-15 1.20E-15 4.73E-15 2.15E-15 3.38E-15
 1.67E-15 4.57E-15 3.31E-15 3.35E-15 4.35E-13 3.78E-13
  -0.3125 -0.3125  0.0625    1  2.72493E-13 kpt; spin; max resid(k); each band:
 1.43E-16 1.98E-16 1.86E-16 3.02E-17 1.76E-15 1.48E-15 1.44E-15 7.60E-16
 8.47E-16 9.62E-16 1.63E-15 2.52E-15 1.30E-15 2.28E-16 3.96E-15 2.90E-15
 2.61E-15 5.23E-15 4.53E-15 4.27E-15 2.72E-13 1.98E-13
  -0.1875 -0.3125  0.0625    1  1.17725E-13 kpt; spin; max resid(k); each band:
 1.51E-16 1.38E-16 1.95E-16 2.88E-17 1.81E-15 5.85E-16 1.70E-15 1.74E-15
 1.53E-15 5.35E-16 1.28E-15 1.04E-15 1.38E-15 1.16E-15 1.44E-15 1.24E-15
 3.58E-15 3.87E-15 3.92E-15 3.84E-15 2.96E-14 1.18E-13
  -0.0625 -0.3125  0.0625    1  4.80639E-14 kpt; spin; max resid(k); each band:
 1.51E-16 1.31E-16 1.00E-16 1.33E-16 2.48E-15 7.30E-16 1.32E-15 1.19E-15
 1.72E-15 2.99E-16 1.07E-15 1.93E-15 1.43E-15 1.40E-15 1.57E-15 1.25E-15
 4.45E-15 3.05E-15 9.59E-15 9.98E-15 8.52E-15 4.81E-14
   0.0625 -0.1875  0.0625    1  1.73577E-14 kpt; spin; max resid(k); each band:
 1.42E-16 1.33E-16 1.07E-16 1.29E-16 2.27E-15 1.02E-15 2.01E-15 1.81E-15
 3.18E-15 3.63E-16 7.89E-16 3.85E-15 1.63E-15 8.31E-16 6.74E-16 1.36E-15
 5.37E-15 7.58E-15 7.79E-15 5.82E-15 7.54E-15 1.74E-14
   0.1875 -0.1875  0.0625    1  4.95061E-14 kpt; spin; max resid(k); each band:
 1.38E-16 1.79E-16 1.69E-16 3.04E-17 1.84E-15 1.18E-15 1.03E-15 1.72E-15
 8.32E-16 9.39E-16 8.69E-16 1.69E-15 1.05E-15 4.30E-16 5.30E-16 1.27E-15
 9.10E-15 2.92E-15 3.03E-15 1.68E-14 3.17E-14 4.95E-14
 outwf : prtvol=0 or 1, do not print more k-points.


 Thirteen components of 2nd-order total energy (hartree) are
 1,2,3: 0th-order hamiltonian combined with 1st-order wavefunctions
     kin0=   1.36005757E+04 eigvalue=   6.67633167E+02  local=  -8.23530348E+03
 4,5,6: 1st-order hamiltonian combined with 1st and 0th-order wfs
 loc psp =  -8.21464846E+03  Hartree=   9.98861274E+02     xc=  -2.30024556E+02
 note that "loc psp" includes a xc core correction that could be resolved
 7,8,9: eventually, occupation + non-local contributions
    edocc=   0.00000000E+00     enl0=   2.71331072E+03   enl1=  -1.08154573E+04
 1-9 gives the relaxation energy (to be shifted if some occ is /=2.0)
   erelax=  -9.51505286E+03
 10,11,12 Non-relaxation  contributions : frozen-wavefunctions and Ewald
 fr.local=   3.89999147E+03 fr.nonlo=   5.39690167E+03  Ewald=   2.18493297E+02
 13,14 Frozen wf xc core corrections (1) and (2)
 frxc 1  =   0.00000000E+00  frxc 2 =   0.00000000E+00
 Resulting in :
 2DEtotal=    0.3335719386E+00 Ha. Also 2DEtotal=    0.907695406497E+01 eV
[...]
  
   3    2   1    1         0.0000000000         0.0000000000
   3    2   2    1         0.0000000000         0.0000000000
   3    2   3    1         0.0000000000         0.0000000000
   3    2   1    2         0.0000000000         0.0000000000
   3    2   2    2         0.0000000000         0.0000000000
   3    2   3    2         0.0048308612         0.0000000000
   3    2   1    3         0.0000000000         0.0000000000
   3    2   2    3         0.0000000000         0.0000000000
   3    2   3    3         0.0000000000         0.0000000000
   3    2   1    4         0.0000000000         0.0000000000
   3    2   2    4         0.0000000000         0.0000000000
   3    2   3    4         0.0010346918         0.0000000000
   3    2   1    5         0.0000000000         0.0000000000
   3    2   2    5         0.0000000000         0.0000000000
   3    2   3    5         0.0165245821         0.0000000000
  
   1    3   1    1        -0.0668531705         0.0000000000
   1    3   2    1         0.0000000000         0.0000000000
   1    3   3    1         0.0000000000         0.0000000000
   1    3   1    2         0.0000000000         0.0000000000
   1    3   2    2         0.0000000000         0.0000000000
   1    3   3    2         0.0000000000         0.0000000000
   1    3   1    3         0.2728862485         0.0000000000
   1    3   2    3         0.0000000000         0.0000000000
   1    3   3    3         0.0000000000         0.0000000000
   1    3   1    4         0.0000000000         0.0000000000
   1    3   2    4         0.0000000000         0.0000000000
   1    3   3    4         0.0000000000         0.0000000000
   1    3   1    5         0.0000000000         0.0000000000
   1    3   2    5         0.0000000000         0.0000000000
   1    3   3    5         0.0000000000         0.0000000000
  
   2    3   1    1         0.0000000000         0.0000000000
   2    3   2    1         0.0159397295         0.0000000000
   2    3   3    1         0.0000000000         0.0000000000
   2    3   1    2         0.0000000000         0.0000000000
   2    3   2    2         0.0000000000         0.0000000000
   2    3   3    2         0.0000000000         0.0000000000
   2    3   1    3         0.0000000000         0.0000000000
   2    3   2    3         0.0444791218         0.0000000000
   2    3   3    3         0.0000000000         0.0000000000
   2    3   1    4         0.0000000000         0.0000000000
   2    3   2    4         0.0000000000         0.0000000000
   2    3   3    4         0.0000000000         0.0000000000
   2    3   1    5         0.0000000000         0.0000000000
   2    3   2    5         0.0000000000         0.0000000000
   2    3   3    5         0.0000000000         0.0000000000
  
   3    3   1    1         0.0000000000         0.0000000000
   3    3   2    1         0.0000000000         0.0000000000
   3    3   3    1         0.0159397295         0.0000000000
   3    3   1    2         0.0000000000         0.0000000000
   3    3   2    2         0.0000000000         0.0000000000
   3    3   3    2         0.0000000000         0.0000000000
   3    3   1    3         0.0000000000         0.0000000000
   3    3   2    3         0.0000000000         0.0000000000
   3    3   3    3         0.0444791218         0.0000000000
   3    3   1    4         0.0000000000         0.0000000000
   3    3   2    4         0.0000000000         0.0000000000
   3    3   3    4         0.0000000000         0.0000000000
   3    3   1    5         0.0000000000         0.0000000000
   3    3   2    5         0.0000000000         0.0000000000
   3    3   3    5         0.0000000000         0.0000000000
  
   1    4   1    1         0.0000000000         0.0000000000
   1    4   2    1         0.0000000000         0.0000000000
   1    4   3    1         0.0000000000         0.0000000000
   1    4   1    2        -0.0658771636         0.0000000000
   1    4   2    2         0.0000000000         0.0000000000
   1    4   3    2         0.0000000000         0.0000000000
   1    4   1    3         0.0000000000         0.0000000000
   1    4   2    3         0.0000000000         0.0000000000
   1    4   3    3         0.0000000000         0.0000000000
   1    4   1    4         0.0622748508         0.0000000000
   1    4   2    4         0.0000000000         0.0000000000
   1    4   3    4         0.0000000000         0.0000000000
   1    4   1    5         0.0220573327         0.0000000000
   1    4   2    5         0.0000000000         0.0000000000
   1    4   3    5         0.0000000000         0.0000000000
  
   2    4   1    1         0.0000000000         0.0000000000
   2    4   2    1         0.0000000000         0.0000000000
   2    4   3    1         0.0000000000         0.0000000000
   2    4   1    2         0.0000000000         0.0000000000
   2    4   2    2         0.0165245859         0.0000000000
   2    4   3    2         0.0000000000         0.0000000000
   2    4   1    3         0.0000000000         0.0000000000
   2    4   2    3         0.0000000000         0.0000000000
   2    4   3    3         0.0000000000         0.0000000000
   2    4   1    4         0.0000000000         0.0000000000
   2    4   2    4         0.0885754901         0.0000000000
   2    4   3    4         0.0000000000         0.0000000000
   2    4   1    5         0.0000000000         0.0000000000
   2    4   2    5        -0.0464904232         0.0000000000
   2    4   3    5         0.0000000000         0.0000000000
  
   3    4   1    1         0.0000000000         0.0000000000
   3    4   2    1         0.0000000000         0.0000000000
   3    4   3    1         0.0000000000         0.0000000000
   3    4   1    2         0.0000000000         0.0000000000
   3    4   2    2         0.0000000000         0.0000000000
   3    4   3    2         0.0010346918         0.0000000000
   3    4   1    3         0.0000000000         0.0000000000
   3    4   2    3         0.0000000000         0.0000000000
   3    4   3    3         0.0000000000         0.0000000000
   3    4   1    4         0.0000000000         0.0000000000
   3    4   2    4         0.0000000000         0.0000000000
   3    4   3    4         0.0383307093         0.0000000000
   3    4   1    5         0.0000000000         0.0000000000
   3    4   2    5         0.0000000000         0.0000000000
   3    4   3    5        -0.0464904720         0.0000000000
  
   1    5   1    1         0.0000000000         0.0000000000
   1    5   2    1         0.0000000000         0.0000000000
   1    5   3    1         0.0000000000         0.0000000000
   1    5   1    2        -0.0658771636         0.0000000000
   1    5   2    2         0.0000000000         0.0000000000
   1    5   3    2         0.0000000000         0.0000000000
   1    5   1    3         0.0000000000         0.0000000000
   1    5   2    3         0.0000000000         0.0000000000
   1    5   3    3         0.0000000000         0.0000000000
   1    5   1    4         0.0220573327         0.0000000000
   1    5   2    4         0.0000000000         0.0000000000
   1    5   3    4         0.0000000000         0.0000000000
   1    5   1    5         0.0622748508         0.0000000000
   1    5   2    5         0.0000000000         0.0000000000
   1    5   3    5         0.0000000000         0.0000000000
  
   2    5   1    1         0.0000000000         0.0000000000
   2    5   2    1         0.0000000000         0.0000000000
   2    5   3    1         0.0000000000         0.0000000000
   2    5   1    2         0.0000000000         0.0000000000
   2    5   2    2         0.0010340431         0.0000000000
   2    5   3    2         0.0000000000         0.0000000000
   2    5   1    3         0.0000000000         0.0000000000
   2    5   2    3         0.0000000000         0.0000000000
   2    5   3    3         0.0000000000         0.0000000000
   2    5   1    4         0.0000000000         0.0000000000
   2    5   2    4        -0.0464904232         0.0000000000
   2    5   3    4         0.0000000000         0.0000000000
   2    5   1    5         0.0000000000         0.0000000000
   2    5   2    5         0.0383307093         0.0000000000
   2    5   3    5         0.0000000000         0.0000000000
  
   3    5   1    1         0.0000000000         0.0000000000
   3    5   2    1         0.0000000000         0.0000000000
   3    5   3    1         0.0000000000         0.0000000000
   3    5   1    2         0.0000000000         0.0000000000
   3    5   2    2         0.0000000000         0.0000000000
   3    5   3    2         0.0165245859         0.0000000000
   3    5   1    3         0.0000000000         0.0000000000
   3    5   2    3         0.0000000000         0.0000000000
   3    5   3    3         0.0000000000         0.0000000000
   3    5   1    4         0.0000000000         0.0000000000
   3    5   2    4         0.0000000000         0.0000000000
   3    5   3    4        -0.0464904720         0.0000000000
   3    5   1    5         0.0000000000         0.0000000000
   3    5   2    5         0.0000000000         0.0000000000
   3    5   3    5         0.0885754901         0.0000000000
 
  Phonon wavevector (reduced coordinates) :  0.50000  0.00000  0.00000
 Phonon energies in Hartree :
  -2.157801E-04 -2.157620E-04  2.683642E-05  2.683642E-05  4.531718E-04
   6.686201E-04  6.686255E-04  1.108288E-03  1.174291E-03  1.241052E-03
   1.241052E-03  2.001537E-03  2.001537E-03  2.222972E-03  3.066094E-03
 Phonon frequencies in cm-1    :
- -4.735825E+01 -4.735428E+01  5.889913E+00  5.889913E+00  9.945971E+01
-  1.467451E+02  1.467463E+02  2.432411E+02  2.577271E+02  2.723794E+02
-  2.723794E+02  4.392866E+02  4.392866E+02  4.878860E+02  6.729298E+02

== END DATASET(S) ==============================================================
================================================================================
  
 -outvars: echo values of variables after computation  --------
     acell    7.4644182249E+00  7.4644182249E+00  7.4644182249E+00 Bohr
       amu    2.07200000E+02  4.78800000E+01  1.59994000E+01
    diemac    9.00000000E+00
      ecut    4.00000000E+01 Hartree
    etotal1   2.1356700362E+00
     fcart1   0.0000000000E+00  0.0000000000E+00  0.0000000000E+00
              0.0000000000E+00  0.0000000000E+00  0.0000000000E+00
              0.0000000000E+00  0.0000000000E+00  0.0000000000E+00
              0.0000000000E+00  0.0000000000E+00  0.0000000000E+00
              0.0000000000E+00  0.0000000000E+00  0.0000000000E+00
    irdwfk         1
      iscf         5
       ixc         3
    jdtset      1
       kpt    6.25000000E-02  6.25000000E-02  6.25000000E-02
              1.87500000E-01  6.25000000E-02  6.25000000E-02
              3.12500000E-01  6.25000000E-02  6.25000000E-02
              4.37500000E-01  6.25000000E-02  6.25000000E-02
             -4.37500000E-01  6.25000000E-02  6.25000000E-02
             -3.12500000E-01  6.25000000E-02  6.25000000E-02
             -1.87500000E-01  6.25000000E-02  6.25000000E-02
             -6.25000000E-02  6.25000000E-02  6.25000000E-02
              6.25000000E-02  1.87500000E-01  6.25000000E-02
              1.87500000E-01  1.87500000E-01  6.25000000E-02
              3.12500000E-01  1.87500000E-01  6.25000000E-02
              4.37500000E-01  1.87500000E-01  6.25000000E-02
             -4.37500000E-01  1.87500000E-01  6.25000000E-02
             -3.12500000E-01  1.87500000E-01  6.25000000E-02
             -1.87500000E-01  1.87500000E-01  6.25000000E-02
             -6.25000000E-02  1.87500000E-01  6.25000000E-02
              6.25000000E-02  3.12500000E-01  6.25000000E-02
              1.87500000E-01  3.12500000E-01  6.25000000E-02
              3.12500000E-01  3.12500000E-01  6.25000000E-02
              4.37500000E-01  3.12500000E-01  6.25000000E-02
             -4.37500000E-01  3.12500000E-01  6.25000000E-02
             -3.12500000E-01  3.12500000E-01  6.25000000E-02
             -1.87500000E-01  3.12500000E-01  6.25000000E-02
             -6.25000000E-02  3.12500000E-01  6.25000000E-02
              6.25000000E-02  4.37500000E-01  6.25000000E-02
              1.87500000E-01  4.37500000E-01  6.25000000E-02
              3.12500000E-01  4.37500000E-01  6.25000000E-02
              4.37500000E-01  4.37500000E-01  6.25000000E-02
             -4.37500000E-01  4.37500000E-01  6.25000000E-02
             -3.12500000E-01  4.37500000E-01  6.25000000E-02
             -1.87500000E-01  4.37500000E-01  6.25000000E-02
             -6.25000000E-02  4.37500000E-01  6.25000000E-02
              6.25000000E-02 -4.37500000E-01  6.25000000E-02
              1.87500000E-01 -4.37500000E-01  6.25000000E-02
              3.12500000E-01 -4.37500000E-01  6.25000000E-02
              4.37500000E-01 -4.37500000E-01  6.25000000E-02
             -4.37500000E-01 -4.37500000E-01  6.25000000E-02
             -3.12500000E-01 -4.37500000E-01  6.25000000E-02
             -1.87500000E-01 -4.37500000E-01  6.25000000E-02
             -6.25000000E-02 -4.37500000E-01  6.25000000E-02
              6.25000000E-02 -3.12500000E-01  6.25000000E-02
              1.87500000E-01 -3.12500000E-01  6.25000000E-02
              3.12500000E-01 -3.12500000E-01  6.25000000E-02
              4.37500000E-01 -3.12500000E-01  6.25000000E-02
             -4.37500000E-01 -3.12500000E-01  6.25000000E-02
             -3.12500000E-01 -3.12500000E-01  6.25000000E-02
             -1.87500000E-01 -3.12500000E-01  6.25000000E-02
             -6.25000000E-02 -3.12500000E-01  6.25000000E-02
              6.25000000E-02 -1.87500000E-01  6.25000000E-02
              1.87500000E-01 -1.87500000E-01  6.25000000E-02
                       outvar1 : prtvol=0, do not print more k-points.
   kptrlen    5.97153458E+01
    kptopt         3
  kptrlatt    8  0  0   0  8  0   0  0  8
P    mkmem       512
P   mkqmem       512
P   mk1mem       512
     natom         5
     nband        22
    ndtset         1
     ngfft        45      45      45
      nkpt       512
      nqpt         1
     nstep        70
      nsym        48
    ntypat         3
       occ    2.000000  2.000000  2.000000  2.000000  2.000000  2.000000
              2.000000  2.000000  2.000000  2.000000  2.000000  2.000000
              2.000000  2.000000  2.000000  2.000000  2.000000  2.000000
              2.000000  2.000000  2.000000  2.000000
 optdriver         1
       qpt    5.00000000E-01  0.00000000E+00  0.00000000E+00
   rfatpol         1       5
     rfdir         1       1       1
    rfphon         1
    shiftk    5.00000000E-01  5.00000000E-01  5.00000000E-01
   spgroup       221
    strten1   0.0000000000E+00  0.0000000000E+00  0.0000000000E+00
              0.0000000000E+00  0.0000000000E+00  0.0000000000E+00
    symrel    1  0  0   0  1  0   0  0  1      -1  0  0   0 -1  0   0  0 -1
             -1  0  0   0  1  0   0  0 -1       1  0  0   0 -1  0   0  0  1
             -1  0  0   0 -1  0   0  0  1       1  0  0   0  1  0   0  0 -1
              1  0  0   0 -1  0   0  0 -1      -1  0  0   0  1  0   0  0  1
              0  1  0   1  0  0   0  0  1       0 -1  0  -1  0  0   0  0 -1
              0 -1  0   1  0  0   0  0 -1       0  1  0  -1  0  0   0  0  1
              0 -1  0  -1  0  0   0  0  1       0  1  0   1  0  0   0  0 -1
              0  1  0  -1  0  0   0  0 -1       0 -1  0   1  0  0   0  0  1
              0  0  1   1  0  0   0  1  0       0  0 -1  -1  0  0   0 -1  0
              0  0 -1   1  0  0   0 -1  0       0  0  1  -1  0  0   0  1  0
              0  0 -1  -1  0  0   0  1  0       0  0  1   1  0  0   0 -1  0
              0  0  1  -1  0  0   0 -1  0       0  0 -1   1  0  0   0  1  0
              1  0  0   0  0  1   0  1  0      -1  0  0   0  0 -1   0 -1  0
             -1  0  0   0  0  1   0 -1  0       1  0  0   0  0 -1   0  1  0
             -1  0  0   0  0 -1   0  1  0       1  0  0   0  0  1   0 -1  0
              1  0  0   0  0 -1   0 -1  0      -1  0  0   0  0  1   0  1  0
              0  1  0   0  0  1   1  0  0       0 -1  0   0  0 -1  -1  0  0
              0 -1  0   0  0  1  -1  0  0       0  1  0   0  0 -1   1  0  0
              0 -1  0   0  0 -1   1  0  0       0  1  0   0  0  1  -1  0  0
              0  1  0   0  0 -1  -1  0  0       0 -1  0   0  0  1   1  0  0
              0  0  1   0  1  0   1  0  0       0  0 -1   0 -1  0  -1  0  0
              0  0 -1   0  1  0  -1  0  0       0  0  1   0 -1  0   1  0  0
              0  0 -1   0 -1  0   1  0  0       0  0  1   0  1  0  -1  0  0
              0  0  1   0 -1  0  -1  0  0       0  0 -1   0  1  0   1  0  0
    tolvrs    1.00000000E-08
     typat    1  2  3  3  3
       wtk      0.00195    0.00195    0.00195    0.00195    0.00195    0.00195
                0.00195    0.00195    0.00195    0.00195    0.00195    0.00195
                0.00195    0.00195    0.00195    0.00195    0.00195    0.00195
                0.00195    0.00195    0.00195    0.00195    0.00195    0.00195
                0.00195    0.00195    0.00195    0.00195    0.00195    0.00195
                0.00195    0.00195    0.00195    0.00195    0.00195    0.00195
                0.00195    0.00195    0.00195    0.00195    0.00195    0.00195
                0.00195    0.00195    0.00195    0.00195    0.00195    0.00195
                0.00195    0.00195
                outvar1 : prtvol=0, do not print more k-points.
    xangst    0.0000000000E+00  0.0000000000E+00  0.0000000000E+00
              1.9750000000E+00  1.9750000000E+00  1.9750000000E+00
              0.0000000000E+00  1.9750000000E+00  1.9750000000E+00
              1.9750000000E+00  0.0000000000E+00  1.9750000000E+00
              1.9750000000E+00  1.9750000000E+00  0.0000000000E+00
     xcart    0.0000000000E+00  0.0000000000E+00  0.0000000000E+00
              3.7322091124E+00  3.7322091124E+00  3.7322091124E+00
              0.0000000000E+00  3.7322091124E+00  3.7322091124E+00
              3.7322091124E+00  0.0000000000E+00  3.7322091124E+00
              3.7322091124E+00  3.7322091124E+00  0.0000000000E+00
      xred    0.0000000000E+00  0.0000000000E+00  0.0000000000E+00
              5.0000000000E-01  5.0000000000E-01  5.0000000000E-01
              0.0000000000E+00  5.0000000000E-01  5.0000000000E-01
              5.0000000000E-01  0.0000000000E+00  5.0000000000E-01
              5.0000000000E-01  5.0000000000E-01  0.0000000000E+00
     znucl     82.00000   22.00000    8.00000

================================================================================

- Total cpu        time (s,m,h):      60849.3     1014.15     16.903
- Total wall clock time (s,m,h):      60849.3     1014.15     16.903

- For major independent code sections, cpu and wall times (sec),
- as well as % of the total time and number of calls 

- routine                 cpu     %       wall     %      number of calls 
-                                                          (-1=no count)
- fourwf(pot)        31637.892  52.0  31640.850  52.0        6648492
- nonlop(apply)       7480.689  12.3   7481.783  12.3        5528428
- projbd              6939.103  11.4   6940.900  11.4       12176920
- fourwf(G->r)        5897.709   9.7   5897.492   9.7        2211968
- vtowfk3(contrib)    3996.073   6.6   3997.056   6.6             -1
- cgwf3-O(npw)        1549.866   2.5   1546.282   2.5             -1
- nonlop(forces)      1268.879   2.1   1268.600   2.1        1663904
- vtorho3-kpt loop     861.954   1.4    861.830   1.4            297
- getghc-other         576.763   0.9    574.088   0.9             -1
- status               384.358   0.6    384.550   0.6         648142
- 60   others          408.716   0.7    409.040   0.7

- subtotal           61002.004 100.3  61002.471 100.3

================================================================================

 Calculation completed.
.Delivered   44 WARNINGs and   0 COMMENTs to log file.
+Overall time at end (sec) : cpu=      60849.3  wall=      60849.3
