
.Version 5.7.3  of ABINIT 
.(MPI version, prepared for a powerpc_aix5.3.0.0_genericunknown computer) 

.Copyright (C) 1998-2009 ABINIT group . 
 ABINIT comes with ABSOLUTELY NO WARRANTY.
 It is free software, and you are welcome to redistribute it
 under certain conditions (GNU General Public License,
 see ~abinit/COPYING or http://www.gnu.org/copyleft/gpl.txt).

 ABINIT is a project of the Universite Catholique de Louvain,
 Corning Inc. and other collaborators, see ~abinit/doc/developers/contributors.txt .
 Please read ~abinit/doc/users/acknowledgments.html for suggested
 acknowledgments of the ABINIT effort.
 For more information, see http://www.abinit.org .

.Starting date : Wed  5 Aug 2009.
  
- input  file    -> perovskite-T.in
- output file    -> perovskite-T.out
- root for input  files -> perovskite-Gamma_o
- root for output files -> perovskite-T_o


 DATASET    1 : space group Pm -3 m (#221); Bravais cP (primitive cubic)
================================================================================
 Values of the parameters that define the memory need for DATASET  1 (RF).
   intxc =         0    iscf =         5 xclevel =         2  lmnmax =         4
   lnmax =         4   mband =        20  mffmem =         1   mgfft =        54
P  mkmem =        32  mkqmem =        32  mk1mem =        32 mpssoang=         4
     mpw =      9516  mqgrid =      3001   natom =         5    nfft =    157464
    nkpt =       512  nloalg =         4  nspden =         1 nspinor =         1
  nsppol =         1    nsym =        48  n1xccc =         0  ntypat =         3
  occopt =         1
================================================================================
P This job should need less than                     357.848 Mbytes of memory.
  Rough estimation (10% accuracy) of disk space for files :
  WF disk file :   1486.877 Mbytes ; DEN or POT disk file :      1.203 Mbytes.
================================================================================

 -outvars: echo values of preprocessed input variables --------
     acell    7.5323692530E+00  7.5323692530E+00  7.5323692530E+00 Bohr
       amu    1.37327000E+02  4.78800000E+01  1.59994000E+01
    diemac    9.00000000E+00
      ecut    6.00000000E+01 Hartree
    irdwfk         1
      iscf         5
       ixc        23
    jdtset      1
       kpt    6.25000000E-02  6.25000000E-02  6.25000000E-02
              1.87500000E-01  6.25000000E-02  6.25000000E-02
              3.12500000E-01  6.25000000E-02  6.25000000E-02
              4.37500000E-01  6.25000000E-02  6.25000000E-02
             -4.37500000E-01  6.25000000E-02  6.25000000E-02
             -3.12500000E-01  6.25000000E-02  6.25000000E-02
             -1.87500000E-01  6.25000000E-02  6.25000000E-02
             -6.25000000E-02  6.25000000E-02  6.25000000E-02
              6.25000000E-02  1.87500000E-01  6.25000000E-02
              1.87500000E-01  1.87500000E-01  6.25000000E-02
              3.12500000E-01  1.87500000E-01  6.25000000E-02
              4.37500000E-01  1.87500000E-01  6.25000000E-02
             -4.37500000E-01  1.87500000E-01  6.25000000E-02
             -3.12500000E-01  1.87500000E-01  6.25000000E-02
             -1.87500000E-01  1.87500000E-01  6.25000000E-02
             -6.25000000E-02  1.87500000E-01  6.25000000E-02
              6.25000000E-02  3.12500000E-01  6.25000000E-02
              1.87500000E-01  3.12500000E-01  6.25000000E-02
              3.12500000E-01  3.12500000E-01  6.25000000E-02
              4.37500000E-01  3.12500000E-01  6.25000000E-02
             -4.37500000E-01  3.12500000E-01  6.25000000E-02
             -3.12500000E-01  3.12500000E-01  6.25000000E-02
             -1.87500000E-01  3.12500000E-01  6.25000000E-02
             -6.25000000E-02  3.12500000E-01  6.25000000E-02
              6.25000000E-02  4.37500000E-01  6.25000000E-02
              1.87500000E-01  4.37500000E-01  6.25000000E-02
              3.12500000E-01  4.37500000E-01  6.25000000E-02
              4.37500000E-01  4.37500000E-01  6.25000000E-02
             -4.37500000E-01  4.37500000E-01  6.25000000E-02
             -3.12500000E-01  4.37500000E-01  6.25000000E-02
             -1.87500000E-01  4.37500000E-01  6.25000000E-02
             -6.25000000E-02  4.37500000E-01  6.25000000E-02
              6.25000000E-02 -4.37500000E-01  6.25000000E-02
              1.87500000E-01 -4.37500000E-01  6.25000000E-02
              3.12500000E-01 -4.37500000E-01  6.25000000E-02
              4.37500000E-01 -4.37500000E-01  6.25000000E-02
             -4.37500000E-01 -4.37500000E-01  6.25000000E-02
             -3.12500000E-01 -4.37500000E-01  6.25000000E-02
             -1.87500000E-01 -4.37500000E-01  6.25000000E-02
             -6.25000000E-02 -4.37500000E-01  6.25000000E-02
              6.25000000E-02 -3.12500000E-01  6.25000000E-02
              1.87500000E-01 -3.12500000E-01  6.25000000E-02
              3.12500000E-01 -3.12500000E-01  6.25000000E-02
              4.37500000E-01 -3.12500000E-01  6.25000000E-02
             -4.37500000E-01 -3.12500000E-01  6.25000000E-02
             -3.12500000E-01 -3.12500000E-01  6.25000000E-02
             -1.87500000E-01 -3.12500000E-01  6.25000000E-02
             -6.25000000E-02 -3.12500000E-01  6.25000000E-02
              6.25000000E-02 -1.87500000E-01  6.25000000E-02
              1.87500000E-01 -1.87500000E-01  6.25000000E-02
                       outvar1 : prtvol=0, do not print more k-points.
   kptrlen    6.02589540E+01
    kptopt         3
  kptrlatt    8  0  0   0  8  0   0  0  8
P    mkmem        32
P   mkqmem        32
P   mk1mem        32
     natom         5
     nband        20
    ndtset         1
     ngfft        54      54      54
      nkpt       512
      nqpt         1
     nstep        70
      nsym        48
    ntypat         3
       occ    2.000000  2.000000  2.000000  2.000000  2.000000  2.000000
              2.000000  2.000000  2.000000  2.000000  2.000000  2.000000
              2.000000  2.000000  2.000000  2.000000  2.000000  2.000000
              2.000000  2.000000
 optdriver         1
    prtden         0
     prtwf         0
       qpt    5.00000000E-01  5.00000000E-01  2.50000000E-01
   rfatpol         1       5
     rfdir         1       1       1
    rfphon         1
    shiftk    5.00000000E-01  5.00000000E-01  5.00000000E-01
   spgroup       221
    symrel    1  0  0   0  1  0   0  0  1      -1  0  0   0 -1  0   0  0 -1
             -1  0  0   0  1  0   0  0 -1       1  0  0   0 -1  0   0  0  1
             -1  0  0   0 -1  0   0  0  1       1  0  0   0  1  0   0  0 -1
              1  0  0   0 -1  0   0  0 -1      -1  0  0   0  1  0   0  0  1
              0  1  0   1  0  0   0  0  1       0 -1  0  -1  0  0   0  0 -1
              0 -1  0   1  0  0   0  0 -1       0  1  0  -1  0  0   0  0  1
              0 -1  0  -1  0  0   0  0  1       0  1  0   1  0  0   0  0 -1
              0  1  0  -1  0  0   0  0 -1       0 -1  0   1  0  0   0  0  1
              0  0  1   1  0  0   0  1  0       0  0 -1  -1  0  0   0 -1  0
              0  0 -1   1  0  0   0 -1  0       0  0  1  -1  0  0   0  1  0
              0  0 -1  -1  0  0   0  1  0       0  0  1   1  0  0   0 -1  0
              0  0  1  -1  0  0   0 -1  0       0  0 -1   1  0  0   0  1  0
              1  0  0   0  0  1   0  1  0      -1  0  0   0  0 -1   0 -1  0
             -1  0  0   0  0  1   0 -1  0       1  0  0   0  0 -1   0  1  0
             -1  0  0   0  0 -1   0  1  0       1  0  0   0  0  1   0 -1  0
              1  0  0   0  0 -1   0 -1  0      -1  0  0   0  0  1   0  1  0
              0  1  0   0  0  1   1  0  0       0 -1  0   0  0 -1  -1  0  0
              0 -1  0   0  0  1  -1  0  0       0  1  0   0  0 -1   1  0  0
              0 -1  0   0  0 -1   1  0  0       0  1  0   0  0  1  -1  0  0
              0  1  0   0  0 -1  -1  0  0       0 -1  0   0  0  1   1  0  0
              0  0  1   0  1  0   1  0  0       0  0 -1   0 -1  0  -1  0  0
              0  0 -1   0  1  0  -1  0  0       0  0  1   0 -1  0   1  0  0
              0  0 -1   0 -1  0   1  0  0       0  0  1   0  1  0  -1  0  0
              0  0  1   0 -1  0  -1  0  0       0  0 -1   0  1  0   1  0  0
    tolvrs    1.00000000E-08
     typat    1  2  3  3  3
       wtk      0.00195    0.00195    0.00195    0.00195    0.00195    0.00195
                0.00195    0.00195    0.00195    0.00195    0.00195    0.00195
                0.00195    0.00195    0.00195    0.00195    0.00195    0.00195
                0.00195    0.00195    0.00195    0.00195    0.00195    0.00195
                0.00195    0.00195    0.00195    0.00195    0.00195    0.00195
                0.00195    0.00195    0.00195    0.00195    0.00195    0.00195
                0.00195    0.00195    0.00195    0.00195    0.00195    0.00195
                0.00195    0.00195    0.00195    0.00195    0.00195    0.00195
                0.00195    0.00195
                outvar1 : prtvol=0, do not print more k-points.
    xangst    0.0000000000E+00  0.0000000000E+00  0.0000000000E+00
              1.9929790677E+00  1.9929790677E+00  1.9929790677E+00
              0.0000000000E+00  1.9929790677E+00  1.9929790677E+00
              1.9929790677E+00  0.0000000000E+00  1.9929790677E+00
              1.9929790677E+00  1.9929790677E+00  0.0000000000E+00
     xcart    0.0000000000E+00  0.0000000000E+00  0.0000000000E+00
              3.7661846265E+00  3.7661846265E+00  3.7661846265E+00
              0.0000000000E+00  3.7661846265E+00  3.7661846265E+00
              3.7661846265E+00  0.0000000000E+00  3.7661846265E+00
              3.7661846265E+00  3.7661846265E+00  0.0000000000E+00
      xred    0.0000000000E+00  0.0000000000E+00  0.0000000000E+00
              5.0000000000E-01  5.0000000000E-01  5.0000000000E-01
              0.0000000000E+00  5.0000000000E-01  5.0000000000E-01
              5.0000000000E-01  0.0000000000E+00  5.0000000000E-01
              5.0000000000E-01  5.0000000000E-01  0.0000000000E+00
     znucl     56.00000   22.00000    8.00000

================================================================================

 chkinp: Checking input parameters for consistency, jdtset= 1.

================================================================================
== DATASET  1 ==================================================================

 Real(R)+Recip(G) space primitive vectors, cartesian coordinates (Bohr,Bohr^-1):
 R(1)=  7.5323693  0.0000000  0.0000000  G(1)=  0.1327604  0.0000000  0.0000000
 R(2)=  0.0000000  7.5323693  0.0000000  G(2)=  0.0000000  0.1327604  0.0000000
 R(3)=  0.0000000  0.0000000  7.5323693  G(3)=  0.0000000  0.0000000  0.1327604
 Unit cell volume ucvol=  4.2736092E+02 bohr^3
 Angles (23,13,12)=  9.00000000E+01  9.00000000E+01  9.00000000E+01 degrees
 setup1 : take into account q-point for computing boxcut.

 getcut: wavevector=  0.5000  0.5000  0.2500  ngfft=  54  54  54
         ecut(hartree)=     60.000   => boxcut(ratio)=   2.01837

--- Pseudopotential description ------------------------------------------------
- pspini: atom type   1  psp file is ../ba.wcgga.fhi
- pspatm: opening atomic psp file    ../ba.wcgga.fhi
 OPIUM generated Ba potential
  56.00000  10.00000     90731                znucl, zion, pspdat
    6   23    3    3      1179   0.00000      pspcod,pspxc,lmax,lloc,mmax,r2well
    0.00000000000000    0.00000000000000    0.00000000000000   rchrg,fchrg,qchrg
  1.013085          amesh (Hamman grid)
 pspatm: epsatm=   82.20741810
         --- l  ekb(1:nproj) -->
             0   -1.025000
             1   -0.812020
             2   -5.512288
 pspatm: atomic psp has been read  and splines computed

- pspini: atom type   2  psp file is ../ti.wcgga.fhi
- pspatm: opening atomic psp file    ../ti.wcgga.fhi
 OPIUM generated Ti potential
  22.00000  12.00000     90731                znucl, zion, pspdat
    6   23    3    3      1156   0.00000      pspcod,pspxc,lmax,lloc,mmax,r2well
    0.00000000000000    0.00000000000000    0.00000000000000   rchrg,fchrg,qchrg
  1.013085          amesh (Hamman grid)
 pspatm: epsatm=   51.36980524
         --- l  ekb(1:nproj) -->
             0   -5.227900
             1   -6.911342
             2   -8.639772
 pspatm: atomic psp has been read  and splines computed

- pspini: atom type   3  psp file is ../o.wcgga.fhi
- pspatm: opening atomic psp file    ../o.wcgga.fhi
 OPIUM generated O potential
   8.00000   6.00000     90731                znucl, zion, pspdat
    6   23    1    0      1130   0.00000      pspcod,pspxc,lmax,lloc,mmax,r2well
    0.00000000000000    0.00000000000000    0.00000000000000   rchrg,fchrg,qchrg
  1.013085          amesh (Hamman grid)
 pspatm: epsatm=    7.84256607
         --- l  ekb(1:nproj) -->
             1   -3.641985
 pspatm: atomic psp has been read  and splines computed

   6.28419686E+03                                ecore*ucvol(ha*bohr**3)
--------------------------------------------------------------------------------

-inwffil : will read wavefunctions from disk file perovskite-Gamma_o_DS1_WFK
-P-0000 - newkpt: read input wf with ikpt,npw=   1    9516, make ikpt,npw=   1    9516
-P-0000 - newkpt: read input wf with ikpt,npw=   2    9486, make ikpt,npw=   2    9486
-P-0000 - newkpt: read input wf with ikpt,npw=   3    9485, make ikpt,npw=   3    9485
-P-0000 - newkpt: read input wf with ikpt,npw=   4    9487, make ikpt,npw=   4    9487
-P-0000 - newkpt: read input wf with ikpt,npw=   4    9487, make ikpt,npw=   5    9487
-P-0000 - newkpt: read input wf with ikpt,npw=   3    9485, make ikpt,npw=   6    9485
-P-0000 - newkpt: read input wf with ikpt,npw=   2    9486, make ikpt,npw=   7    9486
-P-0000 - newkpt: read input wf with ikpt,npw=   1    9516, make ikpt,npw=   8    9516
-P-0000 - newkpt: read input wf with ikpt,npw=   2    9486, make ikpt,npw=   9    9486
-P-0000 - newkpt: read input wf with ikpt,npw=   5    9481, make ikpt,npw=  10    9481
-P-0000 - newkpt: read input wf with ikpt,npw=   6    9490, make ikpt,npw=  11    9490
-P-0000 - newkpt: read input wf with ikpt,npw=   7    9470, make ikpt,npw=  12    9470
-P-0000 - newkpt: read input wf with ikpt,npw=   7    9470, make ikpt,npw=  13    9470
-P-0000 - newkpt: read input wf with ikpt,npw=   6    9490, make ikpt,npw=  14    9490
-P-0000 - newkpt: read input wf with ikpt,npw=   5    9481, make ikpt,npw=  15    9481
-P-0000 - newkpt: read input wf with ikpt,npw=   2    9486, make ikpt,npw=  16    9486
-P-0000 - newkpt: read input wf with ikpt,npw=   3    9485, make ikpt,npw=  17    9485
-P-0000 - newkpt: read input wf with ikpt,npw=   6    9490, make ikpt,npw=  18    9490
-P-0000 - newkpt: read input wf with ikpt,npw=   8    9494, make ikpt,npw=  19    9494
-P-0000 - newkpt: read input wf with ikpt,npw=   9    9474, make ikpt,npw=  20    9474
-P-0000 - newkpt: read input wf with ikpt,npw=   9    9474, make ikpt,npw=  21    9474
-P-0000 - newkpt: read input wf with ikpt,npw=   8    9494, make ikpt,npw=  22    9494
-P-0000 - newkpt: read input wf with ikpt,npw=   6    9490, make ikpt,npw=  23    9490
-P-0000 - newkpt: read input wf with ikpt,npw=   3    9485, make ikpt,npw=  24    9485
-P-0000 - newkpt: read input wf with ikpt,npw=   4    9487, make ikpt,npw=  25    9487
-P-0000 - newkpt: read input wf with ikpt,npw=   7    9470, make ikpt,npw=  26    9470
-P-0000 - newkpt: read input wf with ikpt,npw=   9    9474, make ikpt,npw=  27    9474
-P-0000 - newkpt: read input wf with ikpt,npw=  10    9488, make ikpt,npw=  28    9488
-P-0000 - newkpt: read input wf with ikpt,npw=  10    9488, make ikpt,npw=  29    9488
-P-0000 - newkpt: read input wf with ikpt,npw=   9    9474, make ikpt,npw=  30    9474
-P-0000 - newkpt: read input wf with ikpt,npw=   7    9470, make ikpt,npw=  31    9470
-P-0000 - newkpt: read input wf with ikpt,npw=   4    9487, make ikpt,npw=  32    9487


 ==>  initialize data related to q vector <==

 The list of irreducible perturbations for this q vector is:
    1)    idir= 1    ipert=   1
    2)    idir= 3    ipert=   1
    3)    idir= 1    ipert=   2
    4)    idir= 3    ipert=   2
    5)    idir= 1    ipert=   3
    6)    idir= 2    ipert=   3
    7)    idir= 3    ipert=   3
    8)    idir= 1    ipert=   5
    9)    idir= 3    ipert=   5

================================================================================

 The perturbation idir=   2  ipert=   1 is
 symmetric of a previously calculated perturbation.
 So, its SCF calculation is not needed.


 The perturbation idir=   2  ipert=   2 is
 symmetric of a previously calculated perturbation.
 So, its SCF calculation is not needed.


 The perturbation idir=   1  ipert=   4 is
 symmetric of a previously calculated perturbation.
 So, its SCF calculation is not needed.


 The perturbation idir=   2  ipert=   4 is
 symmetric of a previously calculated perturbation.
 So, its SCF calculation is not needed.


 The perturbation idir=   3  ipert=   4 is
 symmetric of a previously calculated perturbation.
 So, its SCF calculation is not needed.


 The perturbation idir=   2  ipert=   5 is
 symmetric of a previously calculated perturbation.
 So, its SCF calculation is not needed.


--------------------------------------------------------------------------------
 Perturbation wavevector (in red.coord.)   0.500000  0.500000  0.250000
 Perturbation : displacement of atom   1   along direction   1
 The set of symmetries contains only one element for this perturbation.
 symkpt : not enough symmetry to change the number of k points.

--------------------------------------------------------------------------------

-inwffil : will read wavefunctions from disk file perovskite-Gamma_o_DS1_WFK
-P-0000 - newkpt: read input wf with ikpt,npw=   1    9516, make ikpt,npw=   1    9516
-P-0000 - newkpt: read input wf with ikpt,npw=   2    9486, make ikpt,npw=   2    9486
-P-0000 - newkpt: read input wf with ikpt,npw=   3    9485, make ikpt,npw=   3    9485
-P-0000 - newkpt: read input wf with ikpt,npw=   4    9487, make ikpt,npw=   4    9487
-P-0000 - newkpt: read input wf with ikpt,npw=   4    9487, make ikpt,npw=   5    9487
-P-0000 - newkpt: read input wf with ikpt,npw=   3    9485, make ikpt,npw=   6    9485
-P-0000 - newkpt: read input wf with ikpt,npw=   2    9486, make ikpt,npw=   7    9486
-P-0000 - newkpt: read input wf with ikpt,npw=   1    9516, make ikpt,npw=   8    9516
-P-0000 - newkpt: read input wf with ikpt,npw=   2    9486, make ikpt,npw=   9    9486
-P-0000 - newkpt: read input wf with ikpt,npw=   5    9481, make ikpt,npw=  10    9481
-P-0000 - newkpt: read input wf with ikpt,npw=   6    9490, make ikpt,npw=  11    9490
-P-0000 - newkpt: read input wf with ikpt,npw=   7    9470, make ikpt,npw=  12    9470
-P-0000 - newkpt: read input wf with ikpt,npw=   7    9470, make ikpt,npw=  13    9470
-P-0000 - newkpt: read input wf with ikpt,npw=   6    9490, make ikpt,npw=  14    9490
-P-0000 - newkpt: read input wf with ikpt,npw=   5    9481, make ikpt,npw=  15    9481
-P-0000 - newkpt: read input wf with ikpt,npw=   2    9486, make ikpt,npw=  16    9486
-P-0000 - newkpt: read input wf with ikpt,npw=   3    9485, make ikpt,npw=  17    9485
-P-0000 - newkpt: read input wf with ikpt,npw=   6    9490, make ikpt,npw=  18    9490
-P-0000 - newkpt: read input wf with ikpt,npw=   8    9494, make ikpt,npw=  19    9494
-P-0000 - newkpt: read input wf with ikpt,npw=   9    9474, make ikpt,npw=  20    9474
-P-0000 - newkpt: read input wf with ikpt,npw=   9    9474, make ikpt,npw=  21    9474
-P-0000 - newkpt: read input wf with ikpt,npw=   8    9494, make ikpt,npw=  22    9494
-P-0000 - newkpt: read input wf with ikpt,npw=   6    9490, make ikpt,npw=  23    9490
-P-0000 - newkpt: read input wf with ikpt,npw=   3    9485, make ikpt,npw=  24    9485
-P-0000 - newkpt: read input wf with ikpt,npw=   4    9487, make ikpt,npw=  25    9487
-P-0000 - newkpt: read input wf with ikpt,npw=   7    9470, make ikpt,npw=  26    9470
-P-0000 - newkpt: read input wf with ikpt,npw=   9    9474, make ikpt,npw=  27    9474
-P-0000 - newkpt: read input wf with ikpt,npw=  10    9488, make ikpt,npw=  28    9488
-P-0000 - newkpt: read input wf with ikpt,npw=  10    9488, make ikpt,npw=  29    9488
-P-0000 - newkpt: read input wf with ikpt,npw=   9    9474, make ikpt,npw=  30    9474
-P-0000 - newkpt: read input wf with ikpt,npw=   7    9470, make ikpt,npw=  31    9470
-P-0000 - newkpt: read input wf with ikpt,npw=   4    9487, make ikpt,npw=  32    9487

--------------------------------------------------------------------------------

-inwffil : will read wavefunctions from disk file perovskite-Gamma_o_DS1_WFK
-P-0000 - newkpt: read input wf with ikpt,npw=  19    9509, make ikpt,npw=   1    9509
-P-0000 - newkpt: read input wf with ikpt,npw=  18    9510, make ikpt,npw=   2    9510
-P-0000 - newkpt: read input wf with ikpt,npw=  15    9503, make ikpt,npw=   3    9503
-P-0000 - newkpt: read input wf with ikpt,npw=   9    9474, make ikpt,npw=   4    9474
-P-0000 - newkpt: read input wf with ikpt,npw=   9    9474, make ikpt,npw=   5    9474
-P-0000 - newkpt: read input wf with ikpt,npw=  15    9503, make ikpt,npw=   6    9503
-P-0000 - newkpt: read input wf with ikpt,npw=  18    9510, make ikpt,npw=   7    9510
-P-0000 - newkpt: read input wf with ikpt,npw=  19    9509, make ikpt,npw=   8    9509
-P-0000 - newkpt: read input wf with ikpt,npw=  18    9510, make ikpt,npw=   9    9510
-P-0000 - newkpt: read input wf with ikpt,npw=  17    9477, make ikpt,npw=  10    9477
-P-0000 - newkpt: read input wf with ikpt,npw=  14    9478, make ikpt,npw=  11    9478
-P-0000 - newkpt: read input wf with ikpt,npw=   8    9494, make ikpt,npw=  12    9494
-P-0000 - newkpt: read input wf with ikpt,npw=   8    9494, make ikpt,npw=  13    9494
-P-0000 - newkpt: read input wf with ikpt,npw=  14    9478, make ikpt,npw=  14    9478
-P-0000 - newkpt: read input wf with ikpt,npw=  17    9477, make ikpt,npw=  15    9477
-P-0000 - newkpt: read input wf with ikpt,npw=  18    9510, make ikpt,npw=  16    9510
-P-0000 - newkpt: read input wf with ikpt,npw=  15    9503, make ikpt,npw=  17    9503
-P-0000 - newkpt: read input wf with ikpt,npw=  14    9478, make ikpt,npw=  18    9478
-P-0000 - newkpt: read input wf with ikpt,npw=  12    9493, make ikpt,npw=  19    9493
-P-0000 - newkpt: read input wf with ikpt,npw=   6    9490, make ikpt,npw=  20    9490
-P-0000 - newkpt: read input wf with ikpt,npw=   6    9490, make ikpt,npw=  21    9490
-P-0000 - newkpt: read input wf with ikpt,npw=  12    9493, make ikpt,npw=  22    9493
-P-0000 - newkpt: read input wf with ikpt,npw=  14    9478, make ikpt,npw=  23    9478
-P-0000 - newkpt: read input wf with ikpt,npw=  15    9503, make ikpt,npw=  24    9503
-P-0000 - newkpt: read input wf with ikpt,npw=   9    9474, make ikpt,npw=  25    9474
-P-0000 - newkpt: read input wf with ikpt,npw=   8    9494, make ikpt,npw=  26    9494
-P-0000 - newkpt: read input wf with ikpt,npw=   6    9490, make ikpt,npw=  27    9490
-P-0000 - newkpt: read input wf with ikpt,npw=   3    9485, make ikpt,npw=  28    9485
-P-0000 - newkpt: read input wf with ikpt,npw=   3    9485, make ikpt,npw=  29    9485
-P-0000 - newkpt: read input wf with ikpt,npw=   6    9490, make ikpt,npw=  30    9490
-P-0000 - newkpt: read input wf with ikpt,npw=   8    9494, make ikpt,npw=  31    9494
-P-0000 - newkpt: read input wf with ikpt,npw=   9    9474, make ikpt,npw=  32    9474

 Initialisation of the first-order wave-functions :
  ireadwf=   0
P newkpt: treating     20 bands with npw=    9509 for ikpt=   1 by node    0
P newkpt: treating     20 bands with npw=    9510 for ikpt=   2 by node    0
P newkpt: treating     20 bands with npw=    9503 for ikpt=   3 by node    0
P newkpt: treating     20 bands with npw=    9474 for ikpt=   4 by node    0
P newkpt: treating     20 bands with npw=    9474 for ikpt=   5 by node    0
P newkpt: treating     20 bands with npw=    9503 for ikpt=   6 by node    0
P newkpt: treating     20 bands with npw=    9510 for ikpt=   7 by node    0
P newkpt: treating     20 bands with npw=    9509 for ikpt=   8 by node    0
P newkpt: treating     20 bands with npw=    9510 for ikpt=   9 by node    0
P newkpt: treating     20 bands with npw=    9477 for ikpt=  10 by node    0
P newkpt: treating     20 bands with npw=    9478 for ikpt=  11 by node    0
P newkpt: treating     20 bands with npw=    9494 for ikpt=  12 by node    0
P newkpt: treating     20 bands with npw=    9494 for ikpt=  13 by node    0
P newkpt: treating     20 bands with npw=    9478 for ikpt=  14 by node    0
P newkpt: treating     20 bands with npw=    9477 for ikpt=  15 by node    0
P newkpt: treating     20 bands with npw=    9510 for ikpt=  16 by node    0
P newkpt: treating     20 bands with npw=    9503 for ikpt=  17 by node    0
P newkpt: treating     20 bands with npw=    9478 for ikpt=  18 by node    0
P newkpt: treating     20 bands with npw=    9493 for ikpt=  19 by node    0
P newkpt: treating     20 bands with npw=    9490 for ikpt=  20 by node    0
P newkpt: treating     20 bands with npw=    9490 for ikpt=  21 by node    0
P newkpt: treating     20 bands with npw=    9493 for ikpt=  22 by node    0
P newkpt: treating     20 bands with npw=    9478 for ikpt=  23 by node    0
P newkpt: treating     20 bands with npw=    9503 for ikpt=  24 by node    0
P newkpt: treating     20 bands with npw=    9474 for ikpt=  25 by node    0
P newkpt: treating     20 bands with npw=    9494 for ikpt=  26 by node    0
P newkpt: treating     20 bands with npw=    9490 for ikpt=  27 by node    0
P newkpt: treating     20 bands with npw=    9485 for ikpt=  28 by node    0
P newkpt: treating     20 bands with npw=    9485 for ikpt=  29 by node    0
P newkpt: treating     20 bands with npw=    9490 for ikpt=  30 by node    0
P newkpt: treating     20 bands with npw=    9494 for ikpt=  31 by node    0
P newkpt: treating     20 bands with npw=    9474 for ikpt=  32 by node    0
P newkpt: treating     20 bands with npw=    9474 for ikpt=  33 by node    1
P newkpt: treating     20 bands with npw=    9494 for ikpt=  34 by node    1
P newkpt: treating     20 bands with npw=    9490 for ikpt=  35 by node    1
P newkpt: treating     20 bands with npw=    9485 for ikpt=  36 by node    1
P newkpt: treating     20 bands with npw=    9485 for ikpt=  37 by node    1
P newkpt: treating     20 bands with npw=    9490 for ikpt=  38 by node    1
P newkpt: treating     20 bands with npw=    9494 for ikpt=  39 by node    1
P newkpt: treating     20 bands with npw=    9474 for ikpt=  40 by node    1
P newkpt: treating     20 bands with npw=    9503 for ikpt=  41 by node    1
P newkpt: treating     20 bands with npw=    9478 for ikpt=  42 by node    1
P newkpt: treating     20 bands with npw=    9493 for ikpt=  43 by node    1
P newkpt: treating     20 bands with npw=    9490 for ikpt=  44 by node    1
P newkpt: treating     20 bands with npw=    9490 for ikpt=  45 by node    1
P newkpt: treating     20 bands with npw=    9493 for ikpt=  46 by node    1
P newkpt: treating     20 bands with npw=    9478 for ikpt=  47 by node    1
P newkpt: treating     20 bands with npw=    9503 for ikpt=  48 by node    1
P newkpt: treating     20 bands with npw=    9510 for ikpt=  49 by node    1
P newkpt: treating     20 bands with npw=    9477 for ikpt=  50 by node    1
  newkpt: prtvol=0 or 1, do not print more k-points.


     iter   2DEtotal(Ha)        deltaE(Ha) residm    vres2
-ETOT  1   726.22427372703     -1.885E+02 1.723E+01 1.043E+07
 ETOT  2   53.681537262189     -6.725E+02 1.262E+01 2.633E+05
 ETOT  3   25.829769665763     -2.785E+01 9.937E-01 9.590E+04
 ETOT  4   40.603460571515      1.477E+01 2.742E+00 2.392E+05
 ETOT  5   7.2009910448057     -3.340E+01 4.804E-01 1.445E+04
 ETOT  6   6.5665354013631     -6.345E-01 1.492E+00 6.060E+03
 ETOT  7   6.1849401723178     -3.816E-01 3.575E-02 2.529E+03
 ETOT  8   6.0253067667789     -1.596E-01 5.995E-03 2.447E+03
 ETOT  9   5.8815532691646     -1.438E-01 4.157E-02 2.769E+03
 ETOT 10   5.7063258416264     -1.752E-01 4.272E-03 2.044E+03
 ETOT 11   5.6331743218022     -7.315E-02 1.505E-03 5.173E+02
 ETOT 12   5.6082091710566     -2.497E-02 1.143E-03 4.480E+00
 ETOT 13   5.6083799475826      1.708E-04 6.642E-04 1.141E+01
 ETOT 14   5.6060693591813     -2.311E-03 1.139E-04 1.991E+00
 ETOT 15   5.6059136034192     -1.558E-04 5.252E-05 1.572E+00
 ETOT 16   5.6061000958455      1.865E-04 2.087E-05 2.905E+00
 ETOT 17   5.6058962528389     -2.038E-04 1.508E-05 1.737E+00
 ETOT 18   5.6057989362531     -9.732E-05 1.124E-05 1.347E-01
 ETOT 19   5.6057966234260     -2.313E-06 1.396E-06 7.921E-02
 ETOT 20   5.6057954849841     -1.138E-06 1.927E-06 6.013E-02
 ETOT 21   5.6057882480181     -7.237E-06 7.426E-07 3.929E-02
 ETOT 22   5.6057879812140     -2.668E-07 7.379E-07 4.226E-02
 ETOT 23   5.6057859959164     -1.985E-06 2.184E-07 9.013E-03
 ETOT 24   5.6057855549797     -4.409E-07 2.631E-07 1.177E-03
 ETOT 25   5.6057854080512     -1.469E-07 1.000E-07 2.612E-04
 ETOT 26   5.6057853936872     -1.436E-08 1.245E-07 2.986E-04
 ETOT 27   5.6057853629899     -3.070E-08 4.354E-08 6.937E-05
 ETOT 28   5.6057853540694     -8.921E-09 4.868E-08 1.560E-05
 ETOT 29   5.6057853510341     -3.035E-09 1.574E-08 3.432E-06
 ETOT 30   5.6057853495622     -1.472E-09 1.902E-08 3.291E-06
 ETOT 31   5.6057853489892     -5.730E-10 6.019E-09 5.280E-06
 ETOT 32   5.6057853485159     -4.733E-10 7.368E-09 3.412E-06
 ETOT 33   5.6057853479387     -5.772E-10 2.399E-09 1.778E-07
 ETOT 34   5.6057853477714     -1.673E-10 3.052E-09 5.386E-08
 ETOT 35   5.6057853476763     -9.504E-11 9.442E-10 6.107E-08
 ETOT 36   5.6057853476029     -7.344E-11 1.134E-09 4.318E-08
 ETOT 37   5.6057853475751     -2.774E-11 3.863E-10 1.540E-08
 ETOT 38   5.6057853475494     -2.569E-11 4.498E-10 9.721E-09

 At SCF step   38       vres2   =  9.72E-09 < tolvrs=  1.00E-08 =>converged.
================================================================================

 ----iterations are completed or convergence reached----

 Mean square residual over all n,k,spin=   5.6001E-13; max=  4.4981E-10
   0.0625  0.0625  0.0625    1  1.59381E-14 kpt; spin; max resid(k); each band:
 2.34E-15 9.39E-17 8.64E-17 9.40E-17 1.16E-16 1.89E-15 1.26E-15 3.76E-16
 1.18E-16 8.85E-17 8.53E-17 5.57E-15 7.07E-15 6.71E-15 1.59E-14 7.87E-15
 3.35E-15 6.59E-15 1.17E-14 1.12E-14
   0.1875  0.0625  0.0625    1  2.40484E-14 kpt; spin; max resid(k); each band:
 3.21E-15 1.05E-16 5.02E-17 4.63E-17 2.00E-16 6.14E-16 4.22E-16 2.45E-16
 1.72E-16 2.71E-16 1.09E-16 9.15E-15 6.47E-15 3.70E-15 1.41E-14 9.25E-15
 1.11E-14 2.40E-14 2.11E-14 1.50E-14
   0.3125  0.0625  0.0625    1  2.29703E-14 kpt; spin; max resid(k); each band:
 3.06E-15 1.22E-16 3.34E-16 3.69E-16 1.97E-16 5.78E-16 4.09E-16 1.78E-16
 9.36E-17 1.01E-16 1.46E-16 1.13E-14 5.89E-15 2.94E-15 1.62E-14 6.70E-15
 8.98E-15 1.12E-14 2.30E-14 1.49E-14
   0.4375  0.0625  0.0625    1  2.07104E-14 kpt; spin; max resid(k); each band:
 3.04E-15 1.19E-16 3.05E-16 2.97E-16 3.86E-17 5.57E-16 4.11E-16 1.63E-16
 1.43E-16 7.68E-17 3.80E-16 1.09E-14 5.35E-15 7.74E-15 9.04E-15 5.02E-15
 8.94E-15 1.46E-14 2.07E-14 1.46E-14
  -0.4375  0.0625  0.0625    1  2.07104E-14 kpt; spin; max resid(k); each band:
 3.04E-15 1.19E-16 3.05E-16 2.97E-16 3.86E-17 5.57E-16 4.11E-16 1.63E-16
 1.43E-16 7.68E-17 3.80E-16 1.09E-14 5.35E-15 7.74E-15 9.04E-15 5.02E-15
 8.94E-15 1.46E-14 2.07E-14 1.46E-14
  -0.3125  0.0625  0.0625    1  2.29703E-14 kpt; spin; max resid(k); each band:
 3.06E-15 1.22E-16 3.34E-16 3.69E-16 1.97E-16 5.78E-16 4.09E-16 1.78E-16
 9.36E-17 1.01E-16 1.46E-16 1.13E-14 5.89E-15 2.94E-15 1.62E-14 6.70E-15
 8.98E-15 1.12E-14 2.30E-14 1.49E-14
  -0.1875  0.0625  0.0625    1  2.40484E-14 kpt; spin; max resid(k); each band:
 3.21E-15 1.05E-16 5.02E-17 4.63E-17 2.00E-16 6.14E-16 4.22E-16 2.45E-16
 1.72E-16 2.71E-16 1.09E-16 9.15E-15 6.47E-15 3.70E-15 1.41E-14 9.25E-15
 1.11E-14 2.40E-14 2.11E-14 1.50E-14
  -0.0625  0.0625  0.0625    1  1.59381E-14 kpt; spin; max resid(k); each band:
 2.34E-15 9.39E-17 8.64E-17 9.40E-17 1.16E-16 1.89E-15 1.26E-15 3.76E-16
 1.18E-16 8.85E-17 8.53E-17 5.57E-15 7.07E-15 6.71E-15 1.59E-14 7.87E-15
 3.35E-15 6.59E-15 1.17E-14 1.12E-14
   0.0625  0.1875  0.0625    1  1.41695E-14 kpt; spin; max resid(k); each band:
 2.00E-15 6.94E-17 1.08E-16 1.35E-16 8.77E-17 9.66E-16 3.18E-17 4.28E-15
 1.19E-16 2.55E-16 1.77E-16 4.82E-15 9.34E-15 2.38E-15 1.42E-14 1.18E-14
 1.15E-14 9.40E-15 6.60E-15 1.27E-14
   0.1875  0.1875  0.0625    1  2.02638E-14 kpt; spin; max resid(k); each band:
 3.36E-15 8.09E-17 9.04E-17 1.48E-16 9.83E-17 5.81E-16 5.75E-16 2.59E-16
 1.88E-16 2.28E-16 1.14E-16 4.97E-15 1.60E-14 4.51E-15 1.34E-14 1.25E-14
 6.12E-15 1.51E-14 2.03E-14 1.45E-14
   0.3125  0.1875  0.0625    1  2.10781E-14 kpt; spin; max resid(k); each band:
 3.15E-15 1.28E-16 4.21E-17 1.78E-16 5.29E-17 6.25E-16 6.78E-16 9.58E-17
 1.82E-16 2.26E-16 1.23E-16 9.21E-15 1.70E-14 7.94E-15 1.62E-14 1.25E-14
 1.34E-14 1.37E-14 2.11E-14 1.40E-14
   0.4375  0.1875  0.0625    1  2.22370E-14 kpt; spin; max resid(k); each band:
 3.11E-15 1.20E-16 4.17E-17 1.72E-16 8.37E-17 6.23E-16 6.01E-16 7.33E-17
 9.28E-17 1.91E-16 2.51E-16 1.21E-14 7.85E-15 1.01E-14 1.06E-14 1.16E-14
 6.88E-15 2.03E-14 9.74E-15 2.22E-14
  -0.4375  0.1875  0.0625    1  2.22370E-14 kpt; spin; max resid(k); each band:
 3.11E-15 1.20E-16 4.17E-17 1.72E-16 8.37E-17 6.23E-16 6.01E-16 7.33E-17
 9.28E-17 1.91E-16 2.51E-16 1.21E-14 7.85E-15 1.01E-14 1.06E-14 1.16E-14
 6.88E-15 2.03E-14 9.74E-15 2.22E-14
  -0.3125  0.1875  0.0625    1  2.10781E-14 kpt; spin; max resid(k); each band:
 3.15E-15 1.28E-16 4.21E-17 1.78E-16 5.29E-17 6.25E-16 6.78E-16 9.58E-17
 1.82E-16 2.26E-16 1.23E-16 9.21E-15 1.70E-14 7.94E-15 1.62E-14 1.25E-14
 1.34E-14 1.37E-14 2.11E-14 1.40E-14
  -0.1875  0.1875  0.0625    1  2.02638E-14 kpt; spin; max resid(k); each band:
 3.36E-15 8.09E-17 9.04E-17 1.48E-16 9.83E-17 5.81E-16 5.75E-16 2.59E-16
 1.88E-16 2.28E-16 1.14E-16 4.97E-15 1.60E-14 4.51E-15 1.34E-14 1.25E-14
 6.12E-15 1.51E-14 2.03E-14 1.45E-14
  -0.0625  0.1875  0.0625    1  1.41695E-14 kpt; spin; max resid(k); each band:
 2.00E-15 6.94E-17 1.08E-16 1.35E-16 8.77E-17 9.66E-16 3.18E-17 4.28E-15
 1.19E-16 2.55E-16 1.77E-16 4.82E-15 9.34E-15 2.38E-15 1.42E-14 1.18E-14
 1.15E-14 9.40E-15 6.60E-15 1.27E-14
   0.0625  0.3125  0.0625    1  2.59935E-14 kpt; spin; max resid(k); each band:
 1.02E-15 3.55E-17 1.38E-16 1.27E-16 9.79E-17 2.53E-16 2.44E-17 1.08E-15
 2.20E-16 1.88E-16 2.49E-16 4.94E-15 3.61E-15 2.20E-15 1.43E-14 2.60E-14
 2.14E-14 5.78E-15 1.34E-14 1.49E-14
   0.1875  0.3125  0.0625    1  2.38004E-14 kpt; spin; max resid(k); each band:
 1.18E-15 6.12E-17 1.36E-16 1.46E-16 8.43E-17 3.93E-16 1.33E-16 1.56E-15
 3.50E-16 2.44E-16 1.86E-16 2.96E-15 1.46E-14 7.02E-15 9.11E-15 1.69E-14
 2.36E-14 1.50E-14 2.38E-14 8.30E-15
   0.3125  0.3125  0.0625    1  3.48938E-14 kpt; spin; max resid(k); each band:
 3.43E-15 8.16E-17 1.01E-16 1.64E-16 5.88E-17 5.81E-16 6.51E-16 4.59E-16
 3.04E-16 2.00E-16 1.17E-16 3.57E-15 2.42E-14 1.05E-14 1.25E-14 2.47E-14
 1.77E-14 3.49E-14 1.09E-14 2.77E-14
   0.4375  0.3125  0.0625    1  4.09029E-13 kpt; spin; max resid(k); each band:
 3.33E-15 1.27E-16 3.30E-17 1.99E-16 4.70E-17 6.84E-16 8.86E-16 1.64E-16
 1.20E-16 3.49E-16 7.63E-17 9.38E-15 6.54E-15 1.69E-14 2.11E-14 9.63E-15
 1.71E-14 2.43E-14 7.98E-15 4.09E-13
  -0.4375  0.3125  0.0625    1  4.09029E-13 kpt; spin; max resid(k); each band:
 3.33E-15 1.27E-16 3.30E-17 1.99E-16 4.70E-17 6.84E-16 8.86E-16 1.64E-16
 1.20E-16 3.49E-16 7.63E-17 9.38E-15 6.54E-15 1.69E-14 2.11E-14 9.63E-15
 1.71E-14 2.43E-14 7.98E-15 4.09E-13
  -0.3125  0.3125  0.0625    1  3.48938E-14 kpt; spin; max resid(k); each band:
 3.43E-15 8.16E-17 1.01E-16 1.64E-16 5.88E-17 5.81E-16 6.51E-16 4.59E-16
 3.04E-16 2.00E-16 1.17E-16 3.57E-15 2.42E-14 1.05E-14 1.25E-14 2.47E-14
 1.77E-14 3.49E-14 1.09E-14 2.77E-14
  -0.1875  0.3125  0.0625    1  2.38004E-14 kpt; spin; max resid(k); each band:
 1.18E-15 6.12E-17 1.36E-16 1.46E-16 8.43E-17 3.93E-16 1.33E-16 1.56E-15
 3.50E-16 2.44E-16 1.86E-16 2.96E-15 1.46E-14 7.02E-15 9.11E-15 1.69E-14
 2.36E-14 1.50E-14 2.38E-14 8.30E-15
  -0.0625  0.3125  0.0625    1  2.59935E-14 kpt; spin; max resid(k); each band:
 1.02E-15 3.55E-17 1.38E-16 1.27E-16 9.79E-17 2.53E-16 2.44E-17 1.08E-15
 2.20E-16 1.88E-16 2.49E-16 4.94E-15 3.61E-15 2.20E-15 1.43E-14 2.60E-14
 2.14E-14 5.78E-15 1.34E-14 1.49E-14
   0.0625  0.4375  0.0625    1  3.16647E-14 kpt; spin; max resid(k); each band:
 2.61E-15 2.91E-17 1.06E-16 1.43E-16 8.53E-17 2.34E-16 1.24E-17 8.18E-15
 4.56E-16 2.01E-16 3.65E-16 6.11E-15 5.82E-15 1.73E-15 1.46E-14 3.17E-14
 1.72E-14 2.93E-14 1.28E-14 9.32E-15
   0.1875  0.4375  0.0625    1  3.82906E-14 kpt; spin; max resid(k); each band:
 1.06E-15 2.73E-17 1.39E-16 9.20E-17 6.01E-17 2.06E-16 9.09E-17 1.49E-15
 4.90E-16 1.94E-16 1.68E-16 3.64E-15 1.79E-14 1.24E-14 5.74E-15 3.83E-14
 3.07E-14 1.24E-14 1.81E-14 1.89E-14
   0.3125  0.4375  0.0625    1  3.37720E-13 kpt; spin; max resid(k); each band:
 2.64E-15 8.00E-17 1.41E-16 8.51E-17 6.09E-17 2.64E-16 2.60E-16 2.20E-15
 5.06E-16 2.22E-16 6.51E-17 2.77E-15 1.76E-14 1.81E-14 1.47E-14 3.23E-14
 6.78E-15 5.56E-14 3.58E-14 3.38E-13
   0.4375  0.4375  0.0625    1  8.28763E-12 kpt; spin; max resid(k); each band:
 3.14E-15 1.04E-16 7.86E-17 1.12E-16 5.62E-17 3.91E-16 1.45E-15 1.32E-15
 3.19E-16 2.63E-16 1.65E-16 3.73E-15 1.40E-14 1.90E-14 2.24E-14 2.44E-14
 3.95E-15 2.30E-13 1.15E-12 8.29E-12
  -0.4375  0.4375  0.0625    1  8.28763E-12 kpt; spin; max resid(k); each band:
 3.14E-15 1.04E-16 7.86E-17 1.12E-16 5.62E-17 3.91E-16 1.45E-15 1.32E-15
 3.19E-16 2.63E-16 1.65E-16 3.73E-15 1.40E-14 1.90E-14 2.24E-14 2.44E-14
 3.95E-15 2.30E-13 1.15E-12 8.29E-12
  -0.3125  0.4375  0.0625    1  3.37720E-13 kpt; spin; max resid(k); each band:
 2.64E-15 8.00E-17 1.41E-16 8.51E-17 6.09E-17 2.64E-16 2.60E-16 2.20E-15
 5.06E-16 2.22E-16 6.51E-17 2.77E-15 1.76E-14 1.81E-14 1.47E-14 3.23E-14
 6.78E-15 5.56E-14 3.58E-14 3.38E-13
  -0.1875  0.4375  0.0625    1  3.82906E-14 kpt; spin; max resid(k); each band:
 1.06E-15 2.73E-17 1.39E-16 9.20E-17 6.01E-17 2.06E-16 9.09E-17 1.49E-15
 4.90E-16 1.94E-16 1.68E-16 3.64E-15 1.79E-14 1.24E-14 5.74E-15 3.83E-14
 3.07E-14 1.24E-14 1.81E-14 1.89E-14
  -0.0625  0.4375  0.0625    1  3.16647E-14 kpt; spin; max resid(k); each band:
 2.61E-15 2.91E-17 1.06E-16 1.43E-16 8.53E-17 2.34E-16 1.24E-17 8.18E-15
 4.56E-16 2.01E-16 3.65E-16 6.11E-15 5.82E-15 1.73E-15 1.46E-14 3.17E-14
 1.72E-14 2.93E-14 1.28E-14 9.32E-15
   0.0625 -0.4375  0.0625    1  3.16647E-14 kpt; spin; max resid(k); each band:
 2.61E-15 2.91E-17 1.06E-16 1.43E-16 8.53E-17 2.34E-16 1.24E-17 8.18E-15
 4.56E-16 2.01E-16 3.65E-16 6.11E-15 5.82E-15 1.73E-15 1.46E-14 3.17E-14
 1.72E-14 2.93E-14 1.28E-14 9.32E-15
   0.1875 -0.4375  0.0625    1  3.82906E-14 kpt; spin; max resid(k); each band:
 1.06E-15 2.73E-17 1.39E-16 9.20E-17 6.01E-17 2.06E-16 9.09E-17 1.49E-15
 4.90E-16 1.94E-16 1.68E-16 3.64E-15 1.79E-14 1.24E-14 5.74E-15 3.83E-14
 3.07E-14 1.24E-14 1.81E-14 1.89E-14
   0.3125 -0.4375  0.0625    1  3.37720E-13 kpt; spin; max resid(k); each band:
 2.64E-15 8.00E-17 1.41E-16 8.51E-17 6.09E-17 2.64E-16 2.60E-16 2.20E-15
 5.06E-16 2.22E-16 6.51E-17 2.77E-15 1.76E-14 1.81E-14 1.47E-14 3.23E-14
 6.78E-15 5.56E-14 3.58E-14 3.38E-13
   0.4375 -0.4375  0.0625    1  8.28763E-12 kpt; spin; max resid(k); each band:
 3.14E-15 1.04E-16 7.86E-17 1.12E-16 5.62E-17 3.91E-16 1.45E-15 1.32E-15
 3.19E-16 2.63E-16 1.65E-16 3.73E-15 1.40E-14 1.90E-14 2.24E-14 2.44E-14
 3.95E-15 2.30E-13 1.15E-12 8.29E-12
  -0.4375 -0.4375  0.0625    1  8.28763E-12 kpt; spin; max resid(k); each band:
 3.14E-15 1.04E-16 7.86E-17 1.12E-16 5.62E-17 3.91E-16 1.45E-15 1.32E-15
 3.19E-16 2.63E-16 1.65E-16 3.73E-15 1.40E-14 1.90E-14 2.24E-14 2.44E-14
 3.95E-15 2.30E-13 1.15E-12 8.29E-12
  -0.3125 -0.4375  0.0625    1  3.37720E-13 kpt; spin; max resid(k); each band:
 2.64E-15 8.00E-17 1.41E-16 8.51E-17 6.09E-17 2.64E-16 2.60E-16 2.20E-15
 5.06E-16 2.22E-16 6.51E-17 2.77E-15 1.76E-14 1.81E-14 1.47E-14 3.23E-14
 6.78E-15 5.56E-14 3.58E-14 3.38E-13
  -0.1875 -0.4375  0.0625    1  3.82906E-14 kpt; spin; max resid(k); each band:
 1.06E-15 2.73E-17 1.39E-16 9.20E-17 6.01E-17 2.06E-16 9.09E-17 1.49E-15
 4.90E-16 1.94E-16 1.68E-16 3.64E-15 1.79E-14 1.24E-14 5.74E-15 3.83E-14
 3.07E-14 1.24E-14 1.81E-14 1.89E-14
  -0.0625 -0.4375  0.0625    1  3.16647E-14 kpt; spin; max resid(k); each band:
 2.61E-15 2.91E-17 1.06E-16 1.43E-16 8.53E-17 2.34E-16 1.24E-17 8.18E-15
 4.56E-16 2.01E-16 3.65E-16 6.11E-15 5.82E-15 1.73E-15 1.46E-14 3.17E-14
 1.72E-14 2.93E-14 1.28E-14 9.32E-15
   0.0625 -0.3125  0.0625    1  2.59935E-14 kpt; spin; max resid(k); each band:
 1.02E-15 3.55E-17 1.38E-16 1.27E-16 9.79E-17 2.53E-16 2.44E-17 1.08E-15
 2.20E-16 1.88E-16 2.49E-16 4.94E-15 3.61E-15 2.20E-15 1.43E-14 2.60E-14
 2.14E-14 5.78E-15 1.34E-14 1.49E-14
   0.1875 -0.3125  0.0625    1  2.38004E-14 kpt; spin; max resid(k); each band:
 1.18E-15 6.12E-17 1.36E-16 1.46E-16 8.43E-17 3.93E-16 1.33E-16 1.56E-15
 3.50E-16 2.44E-16 1.86E-16 2.96E-15 1.46E-14 7.02E-15 9.11E-15 1.69E-14
 2.36E-14 1.50E-14 2.38E-14 8.30E-15
   0.3125 -0.3125  0.0625    1  3.48938E-14 kpt; spin; max resid(k); each band:
 3.43E-15 8.16E-17 1.01E-16 1.64E-16 5.88E-17 5.81E-16 6.51E-16 4.59E-16
 3.04E-16 2.00E-16 1.17E-16 3.57E-15 2.42E-14 1.05E-14 1.25E-14 2.47E-14
 1.77E-14 3.49E-14 1.09E-14 2.77E-14
   0.4375 -0.3125  0.0625    1  4.09029E-13 kpt; spin; max resid(k); each band:
 3.33E-15 1.27E-16 3.30E-17 1.99E-16 4.70E-17 6.84E-16 8.86E-16 1.64E-16
 1.20E-16 3.49E-16 7.63E-17 9.38E-15 6.54E-15 1.69E-14 2.11E-14 9.63E-15
 1.71E-14 2.43E-14 7.98E-15 4.09E-13
  -0.4375 -0.3125  0.0625    1  4.09029E-13 kpt; spin; max resid(k); each band:
 3.33E-15 1.27E-16 3.30E-17 1.99E-16 4.70E-17 6.84E-16 8.86E-16 1.64E-16
 1.20E-16 3.49E-16 7.63E-17 9.38E-15 6.54E-15 1.69E-14 2.11E-14 9.63E-15
 1.71E-14 2.43E-14 7.98E-15 4.09E-13
  -0.3125 -0.3125  0.0625    1  3.48938E-14 kpt; spin; max resid(k); each band:
 3.43E-15 8.16E-17 1.01E-16 1.64E-16 5.88E-17 5.81E-16 6.51E-16 4.59E-16
 3.04E-16 2.00E-16 1.17E-16 3.57E-15 2.42E-14 1.05E-14 1.25E-14 2.47E-14
 1.77E-14 3.49E-14 1.09E-14 2.77E-14
  -0.1875 -0.3125  0.0625    1  2.38004E-14 kpt; spin; max resid(k); each band:
 1.18E-15 6.12E-17 1.36E-16 1.46E-16 8.43E-17 3.93E-16 1.33E-16 1.56E-15
 3.50E-16 2.44E-16 1.86E-16 2.96E-15 1.46E-14 7.02E-15 9.11E-15 1.69E-14
 2.36E-14 1.50E-14 2.38E-14 8.30E-15
  -0.0625 -0.3125  0.0625    1  2.59935E-14 kpt; spin; max resid(k); each band:
 1.02E-15 3.55E-17 1.38E-16 1.27E-16 9.79E-17 2.53E-16 2.44E-17 1.08E-15
 2.20E-16 1.88E-16 2.49E-16 4.94E-15 3.61E-15 2.20E-15 1.43E-14 2.60E-14
 2.14E-14 5.78E-15 1.34E-14 1.49E-14
   0.0625 -0.1875  0.0625    1  1.41696E-14 kpt; spin; max resid(k); each band:
 2.00E-15 6.94E-17 1.08E-16 1.35E-16 8.77E-17 9.66E-16 3.18E-17 4.28E-15
 1.19E-16 2.55E-16 1.77E-16 4.82E-15 9.34E-15 2.38E-15 1.42E-14 1.18E-14
 1.15E-14 9.40E-15 6.60E-15 1.27E-14
   0.1875 -0.1875  0.0625    1  2.02638E-14 kpt; spin; max resid(k); each band:
 3.36E-15 8.09E-17 9.04E-17 1.48E-16 9.83E-17 5.81E-16 5.75E-16 2.59E-16
 1.88E-16 2.28E-16 1.14E-16 4.97E-15 1.60E-14 4.51E-15 1.34E-14 1.25E-14
 6.12E-15 1.51E-14 2.03E-14 1.45E-14
 outwf : prtvol=0 or 1, do not print more k-points.


 Thirteen components of 2nd-order total energy (hartree) are
 1,2,3: 0th-order hamiltonian combined with 1st-order wavefunctions
     kin0=   7.62088369E+02 eigvalue=   1.28347460E+02  local=  -1.08274248E+02
 4,5,6: 1st-order hamiltonian combined with 1st and 0th-order wfs
 loc psp =  -1.42994999E+03  Hartree=   2.62297409E+02     xc=  -7.75948079E+01
 note that "loc psp" includes a xc core correction that could be resolved
 7,8,9: eventually, occupation + non-local contributions
    edocc=   0.00000000E+00     enl0=  -5.77199270E+01   enl1=  -3.88338552E+02
 1-9 gives the relaxation energy (to be shifted if some occ is /=2.0)
   erelax=  -9.09144287E+02
 10,11,12 Non-relaxation  contributions : frozen-wavefunctions and Ewald
 fr.local=   4.79081823E+02 fr.nonlo=   1.95867773E+02  Ewald=   2.39800475E+02
 13,14 Frozen wf xc core corrections (1) and (2)
 frxc 1  =   0.00000000E+00  frxc 2 =   0.00000000E+00
 Resulting in :
 2DEtotal=    0.5605785348E+01 Ha. Also 2DEtotal=    0.152541176929E+03 eV
    (2DErelax=   -9.0914428696E+02 Ha. 2DEnonrelax=    9.1475007230E+02 Ha)
    (  non-var. 2DEtotal :    5.6058012606E+00 Ha)


--------------------------------------------------------------------------------
 Perturbation wavevector (in red.coord.)   0.500000  0.500000  0.250000
 Perturbation : displacement of atom   1   along direction   3
 Found     2 symmetries that leave the perturbation invariant.
 symkpt : the number of k-points, thanks to the symmetries,
 is reduced to   288 .

--------------------------------------------------------------------------------

-inwffil : will read wavefunctions from disk file perovskite-Gamma_o_DS1_WFK
-P-0000 - newkpt: read input wf with ikpt,npw=   1    9516, make ikpt,npw=   1    9516
-P-0000 - newkpt: read input wf with ikpt,npw=   2    9486, make ikpt,npw=   2    9486
-P-0000 - newkpt: read input wf with ikpt,npw=   3    9485, make ikpt,npw=   3    9485
-P-0000 - newkpt: read input wf with ikpt,npw=   4    9487, make ikpt,npw=   4    9487
-P-0000 - newkpt: read input wf with ikpt,npw=   4    9487, make ikpt,npw=   5    9487
-P-0000 - newkpt: read input wf with ikpt,npw=   3    9485, make ikpt,npw=   6    9485
-P-0000 - newkpt: read input wf with ikpt,npw=   2    9486, make ikpt,npw=   7    9486
-P-0000 - newkpt: read input wf with ikpt,npw=   1    9516, make ikpt,npw=   8    9516
-P-0000 - newkpt: read input wf with ikpt,npw=   5    9481, make ikpt,npw=   9    9481
-P-0000 - newkpt: read input wf with ikpt,npw=   6    9490, make ikpt,npw=  10    9490
-P-0000 - newkpt: read input wf with ikpt,npw=   7    9470, make ikpt,npw=  11    9470
-P-0000 - newkpt: read input wf with ikpt,npw=   7    9470, make ikpt,npw=  12    9470
-P-0000 - newkpt: read input wf with ikpt,npw=   6    9490, make ikpt,npw=  13    9490
-P-0000 - newkpt: read input wf with ikpt,npw=   5    9481, make ikpt,npw=  14    9481
-P-0000 - newkpt: read input wf with ikpt,npw=   2    9486, make ikpt,npw=  15    9486
-P-0000 - newkpt: read input wf with ikpt,npw=   8    9494, make ikpt,npw=  16    9494
-P-0000 - newkpt: read input wf with ikpt,npw=   9    9474, make ikpt,npw=  17    9474
-P-0000 - newkpt: read input wf with ikpt,npw=   9    9474, make ikpt,npw=  18    9474

--------------------------------------------------------------------------------

-inwffil : will read wavefunctions from disk file perovskite-Gamma_o_DS1_WFK
-P-0000 - newkpt: read input wf with ikpt,npw=  19    9509, make ikpt,npw=   1    9509
-P-0000 - newkpt: read input wf with ikpt,npw=  18    9510, make ikpt,npw=   2    9510
-P-0000 - newkpt: read input wf with ikpt,npw=  15    9503, make ikpt,npw=   3    9503
-P-0000 - newkpt: read input wf with ikpt,npw=   9    9474, make ikpt,npw=   4    9474
-P-0000 - newkpt: read input wf with ikpt,npw=   9    9474, make ikpt,npw=   5    9474
-P-0000 - newkpt: read input wf with ikpt,npw=  15    9503, make ikpt,npw=   6    9503
-P-0000 - newkpt: read input wf with ikpt,npw=  18    9510, make ikpt,npw=   7    9510
-P-0000 - newkpt: read input wf with ikpt,npw=  19    9509, make ikpt,npw=   8    9509
-P-0000 - newkpt: read input wf with ikpt,npw=  17    9477, make ikpt,npw=   9    9477
-P-0000 - newkpt: read input wf with ikpt,npw=  14    9478, make ikpt,npw=  10    9478
-P-0000 - newkpt: read input wf with ikpt,npw=   8    9494, make ikpt,npw=  11    9494
-P-0000 - newkpt: read input wf with ikpt,npw=   8    9494, make ikpt,npw=  12    9494
-P-0000 - newkpt: read input wf with ikpt,npw=  14    9478, make ikpt,npw=  13    9478
-P-0000 - newkpt: read input wf with ikpt,npw=  17    9477, make ikpt,npw=  14    9477
-P-0000 - newkpt: read input wf with ikpt,npw=  18    9510, make ikpt,npw=  15    9510
-P-0000 - newkpt: read input wf with ikpt,npw=  12    9493, make ikpt,npw=  16    9493
-P-0000 - newkpt: read input wf with ikpt,npw=   6    9490, make ikpt,npw=  17    9490
-P-0000 - newkpt: read input wf with ikpt,npw=   6    9490, make ikpt,npw=  18    9490

 Initialisation of the first-order wave-functions :
  ireadwf=   0
P newkpt: treating     20 bands with npw=    9509 for ikpt=   1 by node    0
P newkpt: treating     20 bands with npw=    9510 for ikpt=   2 by node    0
P newkpt: treating     20 bands with npw=    9503 for ikpt=   3 by node    0
P newkpt: treating     20 bands with npw=    9474 for ikpt=   4 by node    0
P newkpt: treating     20 bands with npw=    9474 for ikpt=   5 by node    0
P newkpt: treating     20 bands with npw=    9503 for ikpt=   6 by node    0
P newkpt: treating     20 bands with npw=    9510 for ikpt=   7 by node    0
P newkpt: treating     20 bands with npw=    9509 for ikpt=   8 by node    0
P newkpt: treating     20 bands with npw=    9477 for ikpt=   9 by node    0
P newkpt: treating     20 bands with npw=    9478 for ikpt=  10 by node    0
P newkpt: treating     20 bands with npw=    9494 for ikpt=  11 by node    0
P newkpt: treating     20 bands with npw=    9494 for ikpt=  12 by node    0
P newkpt: treating     20 bands with npw=    9478 for ikpt=  13 by node    0
P newkpt: treating     20 bands with npw=    9477 for ikpt=  14 by node    0
P newkpt: treating     20 bands with npw=    9510 for ikpt=  15 by node    0
P newkpt: treating     20 bands with npw=    9493 for ikpt=  16 by node    0
P newkpt: treating     20 bands with npw=    9490 for ikpt=  17 by node    0
P newkpt: treating     20 bands with npw=    9490 for ikpt=  18 by node    0
P newkpt: treating     20 bands with npw=    9493 for ikpt=  19 by node    1
P newkpt: treating     20 bands with npw=    9478 for ikpt=  20 by node    1
P newkpt: treating     20 bands with npw=    9503 for ikpt=  21 by node    1
P newkpt: treating     20 bands with npw=    9485 for ikpt=  22 by node    1
P newkpt: treating     20 bands with npw=    9485 for ikpt=  23 by node    1
P newkpt: treating     20 bands with npw=    9490 for ikpt=  24 by node    1
P newkpt: treating     20 bands with npw=    9494 for ikpt=  25 by node    1
P newkpt: treating     20 bands with npw=    9474 for ikpt=  26 by node    1
P newkpt: treating     20 bands with npw=    9485 for ikpt=  27 by node    1
P newkpt: treating     20 bands with npw=    9490 for ikpt=  28 by node    1
P newkpt: treating     20 bands with npw=    9494 for ikpt=  29 by node    1
P newkpt: treating     20 bands with npw=    9474 for ikpt=  30 by node    1
P newkpt: treating     20 bands with npw=    9493 for ikpt=  31 by node    1
P newkpt: treating     20 bands with npw=    9478 for ikpt=  32 by node    1
P newkpt: treating     20 bands with npw=    9503 for ikpt=  33 by node    1
P newkpt: treating     20 bands with npw=    9477 for ikpt=  34 by node    1
P newkpt: treating     20 bands with npw=    9510 for ikpt=  35 by node    1
P newkpt: treating     20 bands with npw=    9509 for ikpt=  36 by node    1
P newkpt: treating     20 bands with npw=    9505 for ikpt=  37 by node    2
P newkpt: treating     20 bands with npw=    9509 for ikpt=  38 by node    2
P newkpt: treating     20 bands with npw=    9505 for ikpt=  39 by node    2
P newkpt: treating     20 bands with npw=    9488 for ikpt=  40 by node    2
P newkpt: treating     20 bands with npw=    9488 for ikpt=  41 by node    2
P newkpt: treating     20 bands with npw=    9505 for ikpt=  42 by node    2
P newkpt: treating     20 bands with npw=    9509 for ikpt=  43 by node    2
P newkpt: treating     20 bands with npw=    9505 for ikpt=  44 by node    2
P newkpt: treating     20 bands with npw=    9510 for ikpt=  45 by node    2
P newkpt: treating     20 bands with npw=    9503 for ikpt=  46 by node    2
P newkpt: treating     20 bands with npw=    9474 for ikpt=  47 by node    2
P newkpt: treating     20 bands with npw=    9474 for ikpt=  48 by node    2
P newkpt: treating     20 bands with npw=    9503 for ikpt=  49 by node    2
P newkpt: treating     20 bands with npw=    9510 for ikpt=  50 by node    2
  newkpt: prtvol=0 or 1, do not print more k-points.


     iter   2DEtotal(Ha)        deltaE(Ha) residm    vres2
-ETOT  1   363.32054472682     -4.994E+02 8.338E+00 4.085E+06
 ETOT  2   18.624762158080     -3.447E+02 1.217E+00 2.070E+05
 ETOT  3   7.6408060981005     -1.098E+01 1.204E-01 3.131E+04
 ETOT  4   4.9832887773141     -2.658E+00 4.722E-02 9.967E+03
 ETOT  5   4.3710444933161     -6.122E-01 1.829E-02 6.155E+01
 ETOT  6   4.3574790078221     -1.357E-02 6.407E-03 1.307E+01
 ETOT  7   4.3541143350917     -3.365E-03 1.044E-03 4.419E+00
 ETOT  8   4.3531797809728     -9.346E-04 8.506E-04 4.242E+00
 ETOT  9   4.3525357498098     -6.440E-04 2.194E-04 2.272E-01
 ETOT 10   4.3524205423734     -1.152E-04 1.448E-04 2.380E-01
 ETOT 11   4.3523660867519     -5.446E-05 5.583E-05 6.777E-02
 ETOT 12   4.3528384761327      4.724E-04 3.691E-05 4.251E+00
 ETOT 13   4.3523560907372     -4.824E-04 2.018E-05 1.744E-01
 ETOT 14   4.3523404155230     -1.568E-05 1.030E-05 5.336E-02
 ETOT 15   4.3523366542290     -3.761E-06 5.112E-06 3.504E-02
 ETOT 16   4.3523371071163      4.529E-07 2.550E-06 5.049E-02
 ETOT 17   4.3523384081898      1.301E-06 1.445E-06 4.874E-02
 ETOT 18   4.3523371857404     -1.222E-06 9.896E-07 5.161E-02
 ETOT 19   4.3523386593613      1.474E-06 4.967E-07 5.225E-02
 ETOT 20   4.3523328630417     -5.796E-06 4.277E-07 1.134E-02
 ETOT 21   4.3523337207457      8.577E-07 2.110E-07 1.645E-02
 ETOT 22   4.3523320506217     -1.670E-06 1.708E-07 3.068E-03
 ETOT 23   4.3523318748878     -1.757E-07 6.195E-08 1.278E-03
 ETOT 24   4.3523317444353     -1.305E-07 2.416E-08 3.816E-04
 ETOT 25   4.3523317208676     -2.357E-08 1.953E-08 1.531E-04
 ETOT 26   4.3523317118417     -9.026E-09 6.560E-09 7.196E-05
 ETOT 27   4.3523317094075     -2.434E-09 4.777E-09 4.155E-05
 ETOT 28   4.3523317088388     -5.687E-10 2.215E-09 3.973E-05
 ETOT 29   4.3523317059380     -2.901E-09 1.463E-09 1.825E-05
 ETOT 30   4.3523317054528     -4.852E-10 8.121E-10 1.331E-05
 ETOT 31   4.3523317054362     -1.660E-11 4.436E-10 1.494E-05
 ETOT 32   4.3523317046547     -7.815E-10 2.901E-10 3.955E-06
 ETOT 33   4.3523317046172     -3.752E-11 1.131E-10 2.819E-06
 ETOT 34   4.3523317044319     -1.853E-10 7.558E-11 8.435E-07
 ETOT 35   4.3523317044139     -1.796E-11 5.159E-11 4.291E-07
 ETOT 36   4.3523317043760     -3.786E-11 2.519E-11 1.014E-07
 ETOT 37   4.3523317043783      2.274E-12 1.809E-11 3.259E-08
 ETOT 38   4.3523317043739     -4.434E-12 8.616E-12 4.878E-08
 ETOT 39   4.3523317043955      2.160E-11 6.602E-12 1.419E-07
 ETOT 40   4.3523317043762     -1.933E-11 3.398E-12 1.837E-08
 ETOT 41   4.3523317043741     -2.046E-12 2.522E-12 1.818E-08
 ETOT 42   4.3523317043747      5.684E-13 1.353E-12 1.806E-08
 ETOT 43   4.3523317043673     -7.390E-12 1.009E-12 6.634E-09

 At SCF step   43       vres2   =  6.63E-09 < tolvrs=  1.00E-08 =>converged.
================================================================================

 ----iterations are completed or convergence reached----

 Mean square residual over all n,k,spin=   2.1195E-15; max=  1.0089E-12
   0.0625  0.0625  0.0625    1  3.44961E-15 kpt; spin; max resid(k); each band:
 2.00E-17 1.57E-18 1.91E-18 1.60E-18 7.23E-17 3.99E-17 8.78E-17 4.43E-17
 3.37E-17 1.29E-17 1.96E-17 1.35E-15 2.00E-15 6.44E-16 2.06E-16 1.01E-15
 5.77E-16 1.13E-15 3.45E-15 1.51E-15
   0.1875  0.0625  0.0625    1  3.05082E-15 kpt; spin; max resid(k); each band:
 2.50E-17 3.59E-18 1.58E-18 2.68E-18 5.34E-17 3.80E-17 7.82E-17 4.35E-17
 1.55E-17 1.99E-17 3.36E-17 4.50E-16 9.58E-16 1.88E-15 1.56E-15 8.90E-16
 1.09E-15 7.84E-16 2.42E-15 3.05E-15
   0.3125  0.0625  0.0625    1  3.27126E-15 kpt; spin; max resid(k); each band:
 1.95E-17 8.41E-18 1.68E-18 3.80E-18 4.19E-17 3.67E-17 9.14E-17 3.97E-17
 1.32E-17 1.58E-17 4.42E-17 2.51E-16 6.60E-16 1.02E-15 6.08E-16 2.46E-15
 1.05E-15 3.27E-15 1.56E-15 2.46E-15
   0.4375  0.0625  0.0625    1  4.03418E-15 kpt; spin; max resid(k); each band:
 1.97E-17 4.18E-18 3.27E-18 4.54E-18 3.87E-17 3.16E-17 6.86E-17 3.14E-17
 1.74E-17 1.43E-17 3.69E-17 3.36E-16 5.87E-16 8.20E-16 1.54E-15 2.40E-15
 4.03E-15 2.18E-15 2.35E-15 1.81E-15
  -0.4375  0.0625  0.0625    1  2.63031E-15 kpt; spin; max resid(k); each band:
 2.56E-17 3.47E-18 2.76E-18 4.55E-18 3.94E-17 4.20E-17 1.23E-16 2.98E-17
 3.21E-17 1.50E-17 3.53E-17 8.78E-16 9.84E-16 8.12E-16 1.12E-15 1.64E-15
 2.15E-15 2.63E-15 1.27E-15 1.23E-15
  -0.3125  0.0625  0.0625    1  2.22755E-15 kpt; spin; max resid(k); each band:
 2.08E-17 2.76E-18 2.22E-18 3.76E-18 4.40E-17 3.77E-17 9.65E-17 2.14E-17
 3.43E-17 2.01E-17 2.54E-17 1.12E-15 8.04E-16 7.11E-16 7.55E-16 1.26E-15
 2.23E-15 1.50E-15 1.41E-15 1.36E-15
  -0.1875  0.0625  0.0625    1  3.23719E-15 kpt; spin; max resid(k); each band:
 2.47E-17 1.69E-18 1.65E-18 2.52E-18 5.68E-17 4.00E-17 7.50E-17 3.31E-17
 1.73E-16 2.93E-17 1.83E-17 1.67E-15 1.94E-15 2.18E-15 1.13E-15 4.28E-16
 2.35E-15 1.18E-15 2.36E-15 3.24E-15
  -0.0625  0.0625  0.0625    1  2.40188E-15 kpt; spin; max resid(k); each band:
 2.15E-17 1.81E-18 1.83E-18 2.26E-18 7.47E-17 4.03E-17 8.65E-17 1.94E-17
 1.87E-17 5.19E-17 1.27E-17 7.71E-16 2.40E-15 1.19E-15 5.65E-16 1.06E-15
 1.37E-15 1.10E-15 1.72E-15 1.85E-15
   0.1875  0.1875  0.0625    1  5.71794E-15 kpt; spin; max resid(k); each band:
 1.76E-17 1.98E-18 6.71E-19 1.40E-18 4.36E-17 3.98E-17 8.38E-17 8.73E-17
 7.15E-17 1.67E-17 3.31E-17 5.19E-16 2.84E-16 2.18E-15 1.32E-15 2.14E-16
 1.10E-15 4.63E-15 5.72E-15 1.08E-15
   0.3125  0.1875  0.0625    1  4.48301E-15 kpt; spin; max resid(k); each band:
 2.58E-17 4.20E-18 4.66E-18 2.51E-18 3.85E-17 4.69E-17 5.88E-17 6.08E-17
 7.02E-17 1.77E-17 3.21E-17 2.43E-16 3.76E-16 2.44E-15 1.30E-15 2.08E-16
 1.08E-15 1.61E-15 4.48E-15 7.92E-16
   0.4375  0.1875  0.0625    1  3.75254E-15 kpt; spin; max resid(k); each band:
 2.44E-17 3.91E-18 5.12E-18 3.05E-18 3.81E-17 4.45E-17 6.65E-17 3.61E-17
 3.67E-17 2.47E-17 3.04E-17 2.55E-16 1.36E-15 4.71E-16 2.31E-15 9.03E-16
 3.75E-15 1.51E-15 1.83E-15 1.01E-15
  -0.4375  0.1875  0.0625    1  4.47742E-15 kpt; spin; max resid(k); each band:
 2.83E-17 2.92E-18 4.62E-18 3.23E-18 3.90E-17 3.95E-17 6.01E-17 2.73E-17
 5.38E-17 1.94E-17 2.05E-17 6.33E-16 2.11E-15 3.16E-16 3.02E-15 7.71E-16
 3.22E-15 4.48E-15 2.05E-15 5.19E-16
  -0.3125  0.1875  0.0625    1  3.68024E-15 kpt; spin; max resid(k); each band:
 1.77E-17 3.01E-18 3.02E-18 1.54E-18 4.21E-17 4.26E-17 6.08E-17 4.14E-17
 5.78E-17 2.11E-16 1.45E-17 7.28E-16 5.57E-16 1.55E-15 8.36E-16 1.02E-15
 2.51E-15 1.46E-15 3.68E-15 1.21E-15
  -0.1875  0.1875  0.0625    1  2.62344E-15 kpt; spin; max resid(k); each band:
 2.29E-17 2.22E-18 2.32E-18 2.35E-18 4.83E-17 4.15E-17 8.46E-17 8.37E-17
 5.76E-17 1.81E-17 1.23E-17 4.17E-16 1.55E-15 2.62E-15 9.72E-16 5.93E-16
 1.05E-15 1.20E-15 2.40E-15 2.31E-15
  -0.0625  0.1875  0.0625    1  3.74129E-15 kpt; spin; max resid(k); each band:
 2.20E-17 2.78E-18 2.23E-18 1.41E-18 5.60E-17 3.81E-17 1.05E-16 4.14E-17
 3.70E-17 1.51E-17 1.44E-17 2.37E-16 2.28E-15 1.98E-15 5.85E-16 6.19E-16
 2.27E-15 8.33E-16 2.53E-15 3.74E-15
   0.3125  0.3125  0.0625    1  5.32291E-15 kpt; spin; max resid(k); each band:
 2.11E-17 4.57E-18 3.13E-18 3.62E-18 4.01E-17 8.94E-17 2.71E-17 7.32E-17
 4.14E-17 3.32E-17 1.63E-17 9.90E-16 1.27E-15 8.71E-16 1.95E-15 2.24E-16
 3.75E-15 5.32E-15 3.19E-15 2.85E-16
   0.4375  0.3125  0.0625    1  8.36916E-15 kpt; spin; max resid(k); each band:
 2.31E-17 3.97E-18 3.55E-18 4.49E-18 4.49E-17 4.81E-17 6.16E-17 4.55E-17
 5.57E-17 4.77E-17 3.07E-16 2.70E-16 1.39E-15 2.20E-16 1.08E-15 2.35E-16
 8.37E-15 3.82E-15 1.86E-15 4.36E-16
  -0.4375  0.3125  0.0625    1  3.83910E-15 kpt; spin; max resid(k); each band:
 2.67E-17 2.80E-18 3.29E-18 4.62E-18 5.19E-17 5.13E-17 6.63E-17 3.45E-17
 6.43E-17 4.04E-17 1.32E-16 6.94E-16 2.84E-15 2.63E-16 1.04E-15 5.27E-16
 3.30E-15 3.81E-15 2.51E-15 3.84E-15
  -0.3125  0.3125  0.0625    1  3.37119E-15 kpt; spin; max resid(k); each band:
 2.84E-17 2.44E-18 7.15E-18 1.85E-18 4.69E-17 5.02E-17 1.61E-17 7.75E-17
 7.06E-17 2.47E-16 1.54E-17 5.79E-16 1.70E-15 3.37E-15 1.33E-15 3.62E-16
 1.90E-15 3.07E-15 3.32E-15 9.60E-16
  -0.1875  0.3125  0.0625    1  3.06177E-15 kpt; spin; max resid(k); each band:
 1.87E-17 3.16E-18 4.18E-18 2.36E-18 4.43E-17 4.13E-17 4.48E-17 5.91E-17
 6.34E-17 2.76E-17 1.48E-17 1.80E-16 9.05E-16 1.59E-15 1.08E-15 1.53E-16
 1.59E-15 3.06E-15 2.43E-15 1.15E-15
  -0.0625  0.3125  0.0625    1  2.64819E-15 kpt; spin; max resid(k); each band:
 2.63E-17 3.75E-18 3.15E-18 3.94E-18 4.46E-17 3.59E-17 7.08E-17 4.10E-17
 2.44E-17 2.60E-17 3.11E-17 2.02E-16 1.45E-15 1.31E-15 6.65E-16 1.01E-15
 1.36E-15 2.35E-15 2.65E-15 2.38E-15
   0.4375  0.4375  0.0625    1  7.08936E-15 kpt; spin; max resid(k); each band:
 2.49E-17 3.50E-18 4.30E-18 5.96E-18 5.29E-17 6.10E-17 2.86E-17 4.23E-17
 5.73E-17 6.30E-17 3.29E-16 3.00E-16 1.56E-15 2.80E-15 3.58E-16 3.02E-16
 3.83E-15 3.17E-15 7.09E-15 5.58E-16
  -0.4375  0.4375  0.0625    1  3.89898E-14 kpt; spin; max resid(k); each band:
 2.74E-17 2.36E-18 3.36E-18 2.69E-18 5.57E-17 6.87E-17 8.56E-17 6.12E-17
 9.88E-17 5.32E-17 1.68E-16 1.16E-15 9.00E-16 2.20E-15 4.48E-16 2.49E-16
 4.09E-15 2.32E-15 3.55E-15 3.90E-14
  -0.3125  0.4375  0.0625    1  7.08871E-15 kpt; spin; max resid(k); each band:
 2.53E-17 3.02E-18 2.50E-18 3.98E-18 5.12E-17 5.16E-17 3.09E-17 4.55E-17
 9.33E-17 6.92E-17 1.44E-16 2.29E-16 2.74E-15 9.83E-16 2.45E-15 6.35E-16
 2.26E-15 7.09E-15 2.55E-15 7.91E-16
  -0.1875  0.4375  0.0625    1  3.38667E-15 kpt; spin; max resid(k); each band:
 2.10E-17 3.56E-18 2.10E-18 2.16E-18 4.37E-17 4.37E-17 5.65E-17 3.00E-17
 4.22E-17 2.85E-17 2.01E-17 2.41E-16 3.18E-15 9.88E-16 2.15E-15 5.00E-16
 3.28E-15 3.39E-15 1.56E-15 1.27E-15
  -0.0625  0.4375  0.0625    1  2.68775E-15 kpt; spin; max resid(k); each band:
 2.47E-17 4.04E-18 3.98E-18 1.57E-18 4.14E-17 2.04E-17 7.52E-17 3.01E-17
 2.72E-17 1.26E-17 4.02E-17 3.28E-16 1.09E-15 1.16E-15 2.69E-15 1.78E-15
 1.24E-15 1.06E-15 1.15E-15 1.19E-15
  -0.4375 -0.4375  0.0625    1  5.14928E-15 kpt; spin; max resid(k); each band:
 2.53E-17 4.42E-18 7.62E-19 4.62E-18 5.76E-17 6.94E-17 1.79E-17 2.31E-17
 1.00E-16 1.55E-16 4.06E-16 1.50E-15 1.28E-15 2.93E-15 4.69E-16 8.05E-16
 2.70E-15 4.16E-15 5.15E-15 4.47E-16
  -0.3125 -0.4375  0.0625    1  6.96341E-15 kpt; spin; max resid(k); each band:
 2.24E-17 3.82E-18 2.47E-18 3.41E-18 5.19E-17 5.60E-17 3.62E-17 2.61E-17
 6.85E-17 5.77E-17 1.40E-16 5.36E-16 3.62E-15 1.15E-15 8.65E-16 4.90E-16
 6.96E-15 5.18E-15 1.59E-15 3.07E-15
  -0.1875 -0.4375  0.0625    1  5.91264E-15 kpt; spin; max resid(k); each band:
 2.61E-17 3.89E-18 2.13E-18 1.88E-18 4.41E-17 4.10E-17 5.35E-17 2.43E-17
 3.08E-17 2.51E-17 3.02E-17 5.31E-16 5.91E-15 1.48E-15 2.04E-15 1.08E-15
 3.40E-15 1.60E-15 1.22E-15 2.66E-15
  -0.0625 -0.4375  0.0625    1  3.82004E-15 kpt; spin; max resid(k); each band:
 1.95E-17 2.36E-18 4.29E-18 1.58E-18 4.18E-17 5.29E-17 6.75E-17 2.87E-17
 1.87E-17 1.34E-17 4.15E-17 7.56E-16 1.16E-15 1.42E-15 3.82E-15 3.61E-15
 1.08E-15 1.40E-15 1.42E-15 2.79E-15
  -0.3125 -0.3125  0.0625    1  4.99396E-15 kpt; spin; max resid(k); each band:
 2.08E-17 2.19E-18 2.51E-18 2.08E-18 5.04E-17 5.70E-17 8.68E-18 5.07E-17
 5.48E-17 4.17E-17 1.92E-17 2.49E-15 1.65E-15 2.16E-15 2.34E-15 9.31E-16
 1.80E-15 2.63E-15 4.99E-15 1.33E-15
  -0.1875 -0.3125  0.0625    1  3.33486E-15 kpt; spin; max resid(k); each band:
 2.55E-17 3.96E-18 2.02E-18 1.81E-18 4.59E-17 5.34E-17 4.27E-17 3.95E-17
 8.50E-17 2.40E-17 3.78E-17 9.77E-16 1.92E-15 1.10E-15 3.33E-15 2.91E-15
 9.74E-16 1.05E-15 1.74E-15 1.20E-15
  -0.0625 -0.3125  0.0625    1  4.69282E-15 kpt; spin; max resid(k); each band:
 2.01E-17 3.15E-18 3.90E-18 1.54E-18 4.61E-17 3.86E-17 6.87E-17 2.11E-17
 1.41E-17 1.83E-17 4.25E-17 1.10E-15 1.52E-15 2.07E-15 2.11E-15 4.69E-15
 8.96E-16 1.87E-15 1.63E-15 1.47E-15
  -0.1875 -0.1875  0.0625    1  5.79172E-15 kpt; spin; max resid(k); each band:
 1.79E-17 1.81E-18 2.34E-18 1.95E-18 5.11E-17 4.46E-17 1.59E-17 7.12E-17
 2.39E-17 1.78E-17 4.45E-17 8.06E-16 3.31E-15 5.79E-15 2.43E-15 1.17E-15
 8.17E-16 1.11E-15 2.03E-15 1.02E-15
  -0.0625 -0.1875  0.0625    1  2.80929E-15 kpt; spin; max resid(k); each band:
 1.55E-17 2.47E-18 2.95E-18 1.89E-18 5.86E-17 4.05E-17 6.66E-17 2.86E-17
 1.61E-17 1.33E-17 4.19E-17 1.01E-15 2.81E-15 2.65E-15 2.34E-15 2.16E-15
 7.45E-16 1.01E-15 1.79E-15 2.38E-15
  -0.0625 -0.0625  0.0625    1  2.45522E-15 kpt; spin; max resid(k); each band:
 2.59E-17 1.30E-18 1.28E-18 1.33E-18 7.63E-17 4.08E-17 7.96E-17 6.27E-17
 2.03E-16 1.23E-17 2.73E-17 4.86E-16 2.46E-15 5.22E-16 2.45E-15 8.37E-16
 1.18E-15 9.36E-16 1.68E-15 1.51E-15
   0.0625  0.0625  0.1875    1  4.54612E-15 kpt; spin; max resid(k); each band:
 2.56E-17 9.01E-18 1.47E-18 1.81E-18 1.32E-16 4.44E-17 3.22E-17 5.12E-17
 3.47E-17 2.69E-17 3.38E-16 4.55E-15 1.56E-15 4.11E-16 3.49E-16 3.73E-15
 1.45E-15 1.14E-15 3.40E-15 5.37E-16
   0.1875  0.0625  0.1875    1  4.26746E-15 kpt; spin; max resid(k); each band:
 2.47E-17 2.15E-18 2.03E-18 1.64E-18 1.18E-16 3.75E-17 2.27E-16 6.59E-17
 3.16E-17 2.19E-17 3.25E-17 2.19E-15 2.94E-15 6.64E-16 1.01E-15 7.95E-16
 1.36E-15 7.52E-16 2.78E-15 4.27E-15
   0.3125  0.0625  0.1875    1  3.86565E-15 kpt; spin; max resid(k); each band:
 2.30E-17 3.21E-18 1.00E-18 3.17E-18 1.05E-16 3.06E-17 1.13E-16 3.02E-17
 3.05E-17 2.16E-17 3.35E-17 2.91E-16 1.30E-15 1.83E-15 1.77E-15 8.83E-16
 7.49E-16 1.00E-15 1.48E-15 3.87E-15
   0.4375  0.0625  0.1875    1  4.03628E-15 kpt; spin; max resid(k); each band:
 2.53E-17 3.83E-18 2.25E-18 3.39E-18 9.77E-17 1.51E-16 4.93E-17 3.15E-17
 2.94E-17 1.97E-17 2.62E-17 2.59E-16 8.09E-16 4.04E-15 9.02E-16 1.71E-15
 1.24E-15 8.49E-16 1.68E-15 2.59E-15
  -0.4375  0.0625  0.1875    1  3.31251E-15 kpt; spin; max resid(k); each band:
 2.04E-17 3.07E-18 2.52E-18 3.27E-18 9.66E-17 1.54E-16 1.50E-16 3.02E-17
 3.02E-17 5.75E-17 1.54E-17 6.49E-16 1.29E-15 3.31E-15 7.97E-16 1.02E-15
 1.32E-15 1.01E-15 2.52E-15 1.92E-15
  -0.3125  0.0625  0.1875    1  3.03798E-15 kpt; spin; max resid(k); each band:
 2.03E-17 2.11E-18 2.56E-18 2.80E-18 1.02E-16 3.12E-17 1.08E-16 1.83E-17
 2.46E-17 5.00E-17 1.47E-17 7.92E-16 2.47E-15 2.56E-15 1.08E-15 7.31E-16
 1.04E-15 7.81E-16 9.39E-16 3.04E-15
  -0.1875  0.0625  0.1875    1  4.68753E-15 kpt; spin; max resid(k); each band:
 2.05E-17 1.30E-18 1.21E-18 2.23E-18 1.15E-16 3.74E-17 9.60E-17 1.10E-16
 2.41E-17 5.50E-17 1.69E-17 2.18E-15 4.69E-15 1.05E-15 1.55E-15 6.37E-16
 1.48E-15 6.15E-16 1.35E-15 1.73E-15
  -0.0625  0.0625  0.1875    1  4.86730E-15 kpt; spin; max resid(k); each band:
 2.17E-17 1.01E-18 1.86E-18 1.50E-18 1.31E-16 4.37E-17 9.46E-18 1.82E-16
 1.87E-17 7.43E-17 1.75E-17 4.87E-15 1.66E-15 8.89E-16 1.49E-15 9.06E-16
 1.52E-15 1.61E-15 1.32E-15 2.60E-15
   0.1875  0.1875  0.1875    1  2.74509E-15 kpt; spin; max resid(k); each band:
 2.10E-17 3.20E-18 1.27E-18 2.75E-18 1.12E-16 3.34E-17 5.76E-17 9.14E-17
 3.00E-17 2.69E-17 2.46E-17 7.29E-16 1.96E-15 7.63E-16 3.20E-16 1.25E-15
 1.02E-15 1.38E-15 2.75E-15 1.25E-15
   0.3125  0.1875  0.1875    1  2.00419E-15 kpt; spin; max resid(k); each band:
 1.78E-17 3.84E-18 2.55E-18 4.51E-18 1.08E-16 1.07E-16 5.17E-17 3.81E-17
 3.69E-17 3.81E-17 1.63E-17 3.09E-16 5.20E-16 1.46E-15 8.59E-16 1.15E-15
 9.77E-16 2.00E-15 1.89E-15 1.78E-15
   0.4375  0.1875  0.1875    1  2.62032E-15 kpt; spin; max resid(k); each band:
 1.97E-17 3.10E-18 2.59E-18 5.27E-18 1.06E-16 2.61E-17 5.30E-17 3.53E-17
 5.23E-17 4.06E-17 1.80E-17 2.19E-16 1.01E-15 1.02E-15 2.62E-15 1.26E-15
 1.23E-15 1.71E-15 1.20E-15 1.49E-15
  -0.4375  0.1875  0.1875    1  2.07273E-15 kpt; spin; max resid(k); each band:
 2.10E-17 3.16E-18 2.79E-18 1.72E-18 1.06E-16 2.48E-17 4.68E-17 3.29E-17
 6.24E-17 1.09E-16 2.26E-17 7.50E-16 1.77E-15 9.94E-16 2.07E-15 1.65E-15
 1.79E-15 1.80E-15 1.91E-15 1.16E-15
  -0.3125  0.1875  0.1875    1  1.79409E-15 kpt; spin; max resid(k); each band:
 2.25E-17 3.19E-18 1.98E-18 4.20E-18 1.08E-16 2.96E-17 5.61E-17 2.24E-17
 4.60E-16 1.41E-16 1.24E-17 6.47E-16 1.09E-15 1.79E-15 8.47E-16 1.13E-15
 1.07E-15 1.68E-15 8.08E-16 1.05E-15
  -0.1875  0.1875  0.1875    1  5.96410E-15 kpt; spin; max resid(k); each band:
 1.06E-17 2.67E-18 2.95E-18 2.05E-18 1.13E-16 3.23E-17 1.37E-16 2.43E-17
 3.16E-16 2.00E-16 9.27E-18 6.07E-16 5.96E-15 1.86E-15 4.30E-16 1.34E-15
 8.15E-16 5.87E-16 1.71E-15 1.37E-15
 outwf : prtvol=0 or 1, do not print more k-points.


 Thirteen components of 2nd-order total energy (hartree) are
 1,2,3: 0th-order hamiltonian combined with 1st-order wavefunctions
     kin0=   7.50291529E+02 eigvalue=   1.25978503E+02  local=  -1.03435111E+02
 4,5,6: 1st-order hamiltonian combined with 1st and 0th-order wfs
 loc psp =  -1.33021224E+03  Hartree=   2.15832686E+02     xc=  -7.63756914E+01
 note that "loc psp" includes a xc core correction that could be resolved
 7,8,9: eventually, occupation + non-local contributions
    edocc=   0.00000000E+00     enl0=  -5.39692774E+01   enl1=  -3.86433033E+02
 1-9 gives the relaxation energy (to be shifted if some occ is /=2.0)
   erelax=  -8.58322633E+02
 10,11,12 Non-relaxation  contributions : frozen-wavefunctions and Ewald
 fr.local=   4.79081823E+02 fr.nonlo=   1.95867773E+02  Ewald=   1.87725368E+02
 13,14 Frozen wf xc core corrections (1) and (2)
 frxc 1  =   0.00000000E+00  frxc 2 =   0.00000000E+00
 Resulting in :
 2DEtotal=    0.4352331704E+01 Ha. Also 2DEtotal=    0.118432968694E+03 eV
    (2DErelax=   -8.5832263300E+02 Ha. 2DEnonrelax=    8.6267496471E+02 Ha)
    (  non-var. 2DEtotal :    4.3523285208E+00 Ha)


--------------------------------------------------------------------------------
 Perturbation wavevector (in red.coord.)   0.500000  0.500000  0.250000
 Perturbation : displacement of atom   2   along direction   1
 The set of symmetries contains only one element for this perturbation.
 symkpt : not enough symmetry to change the number of k points.

--------------------------------------------------------------------------------

-inwffil : will read wavefunctions from disk file perovskite-Gamma_o_DS1_WFK
-P-0000 - newkpt: read input wf with ikpt,npw=   1    9516, make ikpt,npw=   1    9516
-P-0000 - newkpt: read input wf with ikpt,npw=   2    9486, make ikpt,npw=   2    9486
-P-0000 - newkpt: read input wf with ikpt,npw=   3    9485, make ikpt,npw=   3    9485
-P-0000 - newkpt: read input wf with ikpt,npw=   4    9487, make ikpt,npw=   4    9487
-P-0000 - newkpt: read input wf with ikpt,npw=   4    9487, make ikpt,npw=   5    9487
-P-0000 - newkpt: read input wf with ikpt,npw=   3    9485, make ikpt,npw=   6    9485
-P-0000 - newkpt: read input wf with ikpt,npw=   2    9486, make ikpt,npw=   7    9486
-P-0000 - newkpt: read input wf with ikpt,npw=   1    9516, make ikpt,npw=   8    9516
-P-0000 - newkpt: read input wf with ikpt,npw=   2    9486, make ikpt,npw=   9    9486
-P-0000 - newkpt: read input wf with ikpt,npw=   5    9481, make ikpt,npw=  10    9481
-P-0000 - newkpt: read input wf with ikpt,npw=   6    9490, make ikpt,npw=  11    9490
-P-0000 - newkpt: read input wf with ikpt,npw=   7    9470, make ikpt,npw=  12    9470
-P-0000 - newkpt: read input wf with ikpt,npw=   7    9470, make ikpt,npw=  13    9470
-P-0000 - newkpt: read input wf with ikpt,npw=   6    9490, make ikpt,npw=  14    9490
-P-0000 - newkpt: read input wf with ikpt,npw=   5    9481, make ikpt,npw=  15    9481
-P-0000 - newkpt: read input wf with ikpt,npw=   2    9486, make ikpt,npw=  16    9486
-P-0000 - newkpt: read input wf with ikpt,npw=   3    9485, make ikpt,npw=  17    9485
-P-0000 - newkpt: read input wf with ikpt,npw=   6    9490, make ikpt,npw=  18    9490
-P-0000 - newkpt: read input wf with ikpt,npw=   8    9494, make ikpt,npw=  19    9494
-P-0000 - newkpt: read input wf with ikpt,npw=   9    9474, make ikpt,npw=  20    9474
-P-0000 - newkpt: read input wf with ikpt,npw=   9    9474, make ikpt,npw=  21    9474
-P-0000 - newkpt: read input wf with ikpt,npw=   8    9494, make ikpt,npw=  22    9494
-P-0000 - newkpt: read input wf with ikpt,npw=   6    9490, make ikpt,npw=  23    9490
-P-0000 - newkpt: read input wf with ikpt,npw=   3    9485, make ikpt,npw=  24    9485
-P-0000 - newkpt: read input wf with ikpt,npw=   4    9487, make ikpt,npw=  25    9487
-P-0000 - newkpt: read input wf with ikpt,npw=   7    9470, make ikpt,npw=  26    9470
-P-0000 - newkpt: read input wf with ikpt,npw=   9    9474, make ikpt,npw=  27    9474
-P-0000 - newkpt: read input wf with ikpt,npw=  10    9488, make ikpt,npw=  28    9488
-P-0000 - newkpt: read input wf with ikpt,npw=  10    9488, make ikpt,npw=  29    9488
-P-0000 - newkpt: read input wf with ikpt,npw=   9    9474, make ikpt,npw=  30    9474
-P-0000 - newkpt: read input wf with ikpt,npw=   7    9470, make ikpt,npw=  31    9470
-P-0000 - newkpt: read input wf with ikpt,npw=   4    9487, make ikpt,npw=  32    9487

--------------------------------------------------------------------------------

-inwffil : will read wavefunctions from disk file perovskite-Gamma_o_DS1_WFK
-P-0000 - newkpt: read input wf with ikpt,npw=  19    9509, make ikpt,npw=   1    9509
-P-0000 - newkpt: read input wf with ikpt,npw=  18    9510, make ikpt,npw=   2    9510
-P-0000 - newkpt: read input wf with ikpt,npw=  15    9503, make ikpt,npw=   3    9503
-P-0000 - newkpt: read input wf with ikpt,npw=   9    9474, make ikpt,npw=   4    9474
-P-0000 - newkpt: read input wf with ikpt,npw=   9    9474, make ikpt,npw=   5    9474
-P-0000 - newkpt: read input wf with ikpt,npw=  15    9503, make ikpt,npw=   6    9503
-P-0000 - newkpt: read input wf with ikpt,npw=  18    9510, make ikpt,npw=   7    9510
-P-0000 - newkpt: read input wf with ikpt,npw=  19    9509, make ikpt,npw=   8    9509
-P-0000 - newkpt: read input wf with ikpt,npw=  18    9510, make ikpt,npw=   9    9510
-P-0000 - newkpt: read input wf with ikpt,npw=  17    9477, make ikpt,npw=  10    9477
-P-0000 - newkpt: read input wf with ikpt,npw=  14    9478, make ikpt,npw=  11    9478
-P-0000 - newkpt: read input wf with ikpt,npw=   8    9494, make ikpt,npw=  12    9494
-P-0000 - newkpt: read input wf with ikpt,npw=   8    9494, make ikpt,npw=  13    9494
-P-0000 - newkpt: read input wf with ikpt,npw=  14    9478, make ikpt,npw=  14    9478
-P-0000 - newkpt: read input wf with ikpt,npw=  17    9477, make ikpt,npw=  15    9477
-P-0000 - newkpt: read input wf with ikpt,npw=  18    9510, make ikpt,npw=  16    9510
-P-0000 - newkpt: read input wf with ikpt,npw=  15    9503, make ikpt,npw=  17    9503
-P-0000 - newkpt: read input wf with ikpt,npw=  14    9478, make ikpt,npw=  18    9478
-P-0000 - newkpt: read input wf with ikpt,npw=  12    9493, make ikpt,npw=  19    9493
-P-0000 - newkpt: read input wf with ikpt,npw=   6    9490, make ikpt,npw=  20    9490
-P-0000 - newkpt: read input wf with ikpt,npw=   6    9490, make ikpt,npw=  21    9490
-P-0000 - newkpt: read input wf with ikpt,npw=  12    9493, make ikpt,npw=  22    9493
-P-0000 - newkpt: read input wf with ikpt,npw=  14    9478, make ikpt,npw=  23    9478
-P-0000 - newkpt: read input wf with ikpt,npw=  15    9503, make ikpt,npw=  24    9503
-P-0000 - newkpt: read input wf with ikpt,npw=   9    9474, make ikpt,npw=  25    9474
-P-0000 - newkpt: read input wf with ikpt,npw=   8    9494, make ikpt,npw=  26    9494
-P-0000 - newkpt: read input wf with ikpt,npw=   6    9490, make ikpt,npw=  27    9490
-P-0000 - newkpt: read input wf with ikpt,npw=   3    9485, make ikpt,npw=  28    9485
-P-0000 - newkpt: read input wf with ikpt,npw=   3    9485, make ikpt,npw=  29    9485
-P-0000 - newkpt: read input wf with ikpt,npw=   6    9490, make ikpt,npw=  30    9490
-P-0000 - newkpt: read input wf with ikpt,npw=   8    9494, make ikpt,npw=  31    9494
-P-0000 - newkpt: read input wf with ikpt,npw=   9    9474, make ikpt,npw=  32    9474

 Initialisation of the first-order wave-functions :
  ireadwf=   0
P newkpt: treating     20 bands with npw=    9509 for ikpt=   1 by node    0
P newkpt: treating     20 bands with npw=    9510 for ikpt=   2 by node    0
P newkpt: treating     20 bands with npw=    9503 for ikpt=   3 by node    0
P newkpt: treating     20 bands with npw=    9474 for ikpt=   4 by node    0
P newkpt: treating     20 bands with npw=    9474 for ikpt=   5 by node    0
P newkpt: treating     20 bands with npw=    9503 for ikpt=   6 by node    0
P newkpt: treating     20 bands with npw=    9510 for ikpt=   7 by node    0
P newkpt: treating     20 bands with npw=    9509 for ikpt=   8 by node    0
P newkpt: treating     20 bands with npw=    9510 for ikpt=   9 by node    0
P newkpt: treating     20 bands with npw=    9477 for ikpt=  10 by node    0
P newkpt: treating     20 bands with npw=    9478 for ikpt=  11 by node    0
P newkpt: treating     20 bands with npw=    9494 for ikpt=  12 by node    0
P newkpt: treating     20 bands with npw=    9494 for ikpt=  13 by node    0
P newkpt: treating     20 bands with npw=    9478 for ikpt=  14 by node    0
P newkpt: treating     20 bands with npw=    9477 for ikpt=  15 by node    0
P newkpt: treating     20 bands with npw=    9510 for ikpt=  16 by node    0
P newkpt: treating     20 bands with npw=    9503 for ikpt=  17 by node    0
P newkpt: treating     20 bands with npw=    9478 for ikpt=  18 by node    0
P newkpt: treating     20 bands with npw=    9493 for ikpt=  19 by node    0
P newkpt: treating     20 bands with npw=    9490 for ikpt=  20 by node    0
P newkpt: treating     20 bands with npw=    9490 for ikpt=  21 by node    0
P newkpt: treating     20 bands with npw=    9493 for ikpt=  22 by node    0
P newkpt: treating     20 bands with npw=    9478 for ikpt=  23 by node    0
P newkpt: treating     20 bands with npw=    9503 for ikpt=  24 by node    0
P newkpt: treating     20 bands with npw=    9474 for ikpt=  25 by node    0
P newkpt: treating     20 bands with npw=    9494 for ikpt=  26 by node    0
P newkpt: treating     20 bands with npw=    9490 for ikpt=  27 by node    0
P newkpt: treating     20 bands with npw=    9485 for ikpt=  28 by node    0
P newkpt: treating     20 bands with npw=    9485 for ikpt=  29 by node    0
P newkpt: treating     20 bands with npw=    9490 for ikpt=  30 by node    0
P newkpt: treating     20 bands with npw=    9494 for ikpt=  31 by node    0
P newkpt: treating     20 bands with npw=    9474 for ikpt=  32 by node    0
P newkpt: treating     20 bands with npw=    9474 for ikpt=  33 by node    1
P newkpt: treating     20 bands with npw=    9494 for ikpt=  34 by node    1
P newkpt: treating     20 bands with npw=    9490 for ikpt=  35 by node    1
P newkpt: treating     20 bands with npw=    9485 for ikpt=  36 by node    1
P newkpt: treating     20 bands with npw=    9485 for ikpt=  37 by node    1
P newkpt: treating     20 bands with npw=    9490 for ikpt=  38 by node    1
P newkpt: treating     20 bands with npw=    9494 for ikpt=  39 by node    1
P newkpt: treating     20 bands with npw=    9474 for ikpt=  40 by node    1
P newkpt: treating     20 bands with npw=    9503 for ikpt=  41 by node    1
P newkpt: treating     20 bands with npw=    9478 for ikpt=  42 by node    1
P newkpt: treating     20 bands with npw=    9493 for ikpt=  43 by node    1
P newkpt: treating     20 bands with npw=    9490 for ikpt=  44 by node    1
P newkpt: treating     20 bands with npw=    9490 for ikpt=  45 by node    1
P newkpt: treating     20 bands with npw=    9493 for ikpt=  46 by node    1
P newkpt: treating     20 bands with npw=    9478 for ikpt=  47 by node    1
P newkpt: treating     20 bands with npw=    9503 for ikpt=  48 by node    1
P newkpt: treating     20 bands with npw=    9510 for ikpt=  49 by node    1
P newkpt: treating     20 bands with npw=    9477 for ikpt=  50 by node    1
  newkpt: prtvol=0 or 1, do not print more k-points.


     iter   2DEtotal(Ha)        deltaE(Ha) residm    vres2
-ETOT  1   4202.1593907672     -8.778E+02 3.038E+02 4.001E+07
 ETOT  2   268.57568801003     -3.934E+03 1.154E+02 1.500E+06
 ETOT  3   66.038458474452     -2.025E+02 1.459E+01 5.759E+05
[...]
   2    3   3    1        -0.0006881810         0.0006881810
   2    3   1    2         0.0000000000         0.0000000000
   2    3   2    2         0.0000000000         0.0000000000
   2    3   3    2         0.0000000000         0.0000000012
   2    3   1    3         0.0000000000         0.0000000000
   2    3   2    3         0.0721490320         0.0000000000
   2    3   3    3         0.0000000000         0.0000000000
   2    3   1    4         0.0474052941         0.0000000000
   2    3   2    4         0.0000000000         0.0000000000
   2    3   3    4         0.0000000000         0.0000000000
   2    3   1    5         0.0000000000         0.0000000000
   2    3   2    5         0.0000000000         0.0000000000
   2    3   3    5         0.0000000000         0.0000000000
  
   3    3   1    1         0.0000000000         0.0000000000
   3    3   2    1        -0.0017703129         0.0017703129
   3    3   3    1         0.0000000004        -0.0000000004
   3    3   1    2         0.0000000000        -0.0046840066
   3    3   2    2         0.0000000000         0.0000000000
   3    3   3    2         0.0000000000         0.0000000007
   3    3   1    3         0.0000000000         0.0000000000
   3    3   2    3         0.0000000000         0.0000000000
   3    3   3    3         0.0698085868         0.0000000000
   3    3   1    4         0.0000000000         0.0000000000
   3    3   2    4         0.0000000000         0.0000000000
   3    3   3    4         0.0000000000         0.0000000000
   3    3   1    5         0.0214290986        -0.0214290986
   3    3   2    5         0.0000000000         0.0000000000
   3    3   3    5         0.0000000001        -0.0000000001
  
   1    4   1    1         0.0000000000         0.0000000000
   1    4   2    1         0.0000000000         0.0000000000
   1    4   3    1        -0.0006881810         0.0006881810
   1    4   1    2         0.0000000000         0.0000000000
   1    4   2    2         0.0000000000         0.0000000000
   1    4   3    2         0.0000000000         0.0000000012
   1    4   1    3         0.0000000000         0.0000000000
   1    4   2    3         0.0474052941         0.0000000000
   1    4   3    3         0.0000000000         0.0000000000
   1    4   1    4         0.0721490320         0.0000000000
   1    4   2    4         0.0000000000         0.0000000000
   1    4   3    4         0.0000000000         0.0000000000
   1    4   1    5         0.0000000000         0.0000000000
   1    4   2    5         0.0000000000         0.0000000000
   1    4   3    5         0.0000000000         0.0000000000
  
   2    4   1    1         0.0000000000         0.0000000000
   2    4   2    1         0.0000000000         0.0000000000
   2    4   3    1         0.0000000063        -0.0000000063
   2    4   1    2         0.0000000000         0.0000000000
   2    4   2    2         0.0000000000         0.0000000000
   2    4   3    2         0.0000000000         0.0438859729
   2    4   1    3         0.0945972827         0.0000000000
   2    4   2    3         0.0000000000         0.0000000000
   2    4   3    3         0.0000000000         0.0000000000
   2    4   1    4         0.0000000000         0.0000000000
   2    4   2    4         0.1817975335         0.0000000000
   2    4   3    4         0.0000000000         0.0000000000
   2    4   1    5         0.0000000000         0.0000000000
   2    4   2    5         0.0000000000         0.0000000000
   2    4   3    5         0.0465474277        -0.0465474277
  
   3    4   1    1        -0.0017702908         0.0017702908
   3    4   2    1         0.0000000000         0.0000000000
   3    4   3    1         0.0000000004        -0.0000000004
   3    4   1    2         0.0000000000         0.0000000000
   3    4   2    2         0.0000000000        -0.0046840066
   3    4   3    2         0.0000000000         0.0000000007
   3    4   1    3         0.0000000000         0.0000000000
   3    4   2    3         0.0000000000         0.0000000000
   3    4   3    3         0.0000000000         0.0000000000
   3    4   1    4         0.0000000000         0.0000000000
   3    4   2    4         0.0000000000         0.0000000000
   3    4   3    4         0.0698085868         0.0000000000
   3    4   1    5         0.0000000000         0.0000000000
   3    4   2    5         0.0214290986        -0.0214290986
   3    4   3    5         0.0000000001        -0.0000000001
  
   1    5   1    1         0.0000000000         0.0000000000
   1    5   2    1         0.0021191000         0.0000000000
   1    5   3    1         0.0000000002         0.0000000000
   1    5   1    2        -0.0261818295         0.0261818295
   1    5   2    2         0.0000000000         0.0000000000
   1    5   3    2        -0.0000000011         0.0000000011
   1    5   1    3         0.0000000000         0.0000000000
   1    5   2    3         0.0000000000         0.0000000000
   1    5   3    3         0.0214291786         0.0214291786
   1    5   1    4         0.0000000000         0.0000000000
   1    5   2    4         0.0000000000         0.0000000000
   1    5   3    4         0.0000000000         0.0000000000
   1    5   1    5         0.0659413268         0.0000000000
   1    5   2    5         0.0000000000         0.0000000000
   1    5   3    5        -0.0000000001         0.0000000000
  
   2    5   1    1         0.0021188874         0.0000000000
   2    5   2    1         0.0000000000         0.0000000000
   2    5   3    1         0.0000000002         0.0000000000
   2    5   1    2         0.0000000000         0.0000000000
   2    5   2    2        -0.0261818295         0.0261818295
   2    5   3    2        -0.0000000011         0.0000000011
   2    5   1    3         0.0000000000         0.0000000000
   2    5   2    3         0.0000000000         0.0000000000
   2    5   3    3         0.0000000000         0.0000000000
   2    5   1    4         0.0000000000         0.0000000000
   2    5   2    4         0.0000000000         0.0000000000
   2    5   3    4         0.0214291786         0.0214291786
   2    5   1    5         0.0000000000         0.0000000000
   2    5   2    5         0.0659413268         0.0000000000
   2    5   3    5        -0.0000000001         0.0000000000
  
   3    5   1    1         0.0000000000         0.0000000000
   3    5   2    1         0.0000000001         0.0000000000
   3    5   3    1         0.0000000091         0.0000000000
   3    5   1    2         0.0000000000         0.0000000000
   3    5   2    2         0.0000000000         0.0000000000
   3    5   3    2         0.0083801611        -0.0083801611
   3    5   1    3         0.0465474791         0.0465474791
   3    5   2    3         0.0000000000         0.0000000000
   3    5   3    3         0.0000000000         0.0000000000
   3    5   1    4         0.0000000000         0.0000000000
   3    5   2    4         0.0465474277         0.0465474277
   3    5   3    4         0.0000000001         0.0000000001
   3    5   1    5         0.0000000000         0.0000000000
   3    5   2    5        -0.0000000001         0.0000000000
   3    5   3    5         0.1235934694         0.0000000000
 
  Phonon wavevector (reduced coordinates) :  0.50000  0.50000  0.25000
 Phonon energies in Hartree :
   5.535065E-04  5.552551E-04  5.552558E-04  9.210872E-04  1.059756E-03
   1.059756E-03  1.116040E-03  1.729127E-03  1.736399E-03  1.736399E-03
   1.758087E-03  1.961646E-03  1.961646E-03  2.024671E-03  3.331138E-03
 Phonon frequencies in cm-1    :
-  1.214806E+02  1.218644E+02  1.218646E+02  2.021553E+02  2.325895E+02
-  2.325896E+02  2.449426E+02  3.794996E+02  3.810956E+02  3.810956E+02
-  3.858554E+02  4.305316E+02  4.305316E+02  4.443638E+02  7.311003E+02

== END DATASET(S) ==============================================================
================================================================================
  
 -outvars: echo values of variables after computation  --------
     acell    7.5323692530E+00  7.5323692530E+00  7.5323692530E+00 Bohr
       amu    1.37327000E+02  4.78800000E+01  1.59994000E+01
    diemac    9.00000000E+00
      ecut    6.00000000E+01 Hartree
    etotal1   7.0122813654E+00
     fcart1   0.0000000000E+00  0.0000000000E+00  0.0000000000E+00
              0.0000000000E+00  0.0000000000E+00  0.0000000000E+00
              0.0000000000E+00  0.0000000000E+00  0.0000000000E+00
              0.0000000000E+00  0.0000000000E+00  0.0000000000E+00
              0.0000000000E+00  0.0000000000E+00  0.0000000000E+00
    irdwfk         1
      iscf         5
       ixc        23
    jdtset      1
       kpt    6.25000000E-02  6.25000000E-02  6.25000000E-02
              1.87500000E-01  6.25000000E-02  6.25000000E-02
              3.12500000E-01  6.25000000E-02  6.25000000E-02
              4.37500000E-01  6.25000000E-02  6.25000000E-02
             -4.37500000E-01  6.25000000E-02  6.25000000E-02
             -3.12500000E-01  6.25000000E-02  6.25000000E-02
             -1.87500000E-01  6.25000000E-02  6.25000000E-02
             -6.25000000E-02  6.25000000E-02  6.25000000E-02
              6.25000000E-02  1.87500000E-01  6.25000000E-02
              1.87500000E-01  1.87500000E-01  6.25000000E-02
              3.12500000E-01  1.87500000E-01  6.25000000E-02
              4.37500000E-01  1.87500000E-01  6.25000000E-02
             -4.37500000E-01  1.87500000E-01  6.25000000E-02
             -3.12500000E-01  1.87500000E-01  6.25000000E-02
             -1.87500000E-01  1.87500000E-01  6.25000000E-02
             -6.25000000E-02  1.87500000E-01  6.25000000E-02
              6.25000000E-02  3.12500000E-01  6.25000000E-02
              1.87500000E-01  3.12500000E-01  6.25000000E-02
              3.12500000E-01  3.12500000E-01  6.25000000E-02
              4.37500000E-01  3.12500000E-01  6.25000000E-02
             -4.37500000E-01  3.12500000E-01  6.25000000E-02
             -3.12500000E-01  3.12500000E-01  6.25000000E-02
             -1.87500000E-01  3.12500000E-01  6.25000000E-02
             -6.25000000E-02  3.12500000E-01  6.25000000E-02
              6.25000000E-02  4.37500000E-01  6.25000000E-02
              1.87500000E-01  4.37500000E-01  6.25000000E-02
              3.12500000E-01  4.37500000E-01  6.25000000E-02
              4.37500000E-01  4.37500000E-01  6.25000000E-02
             -4.37500000E-01  4.37500000E-01  6.25000000E-02
             -3.12500000E-01  4.37500000E-01  6.25000000E-02
             -1.87500000E-01  4.37500000E-01  6.25000000E-02
             -6.25000000E-02  4.37500000E-01  6.25000000E-02
              6.25000000E-02 -4.37500000E-01  6.25000000E-02
              1.87500000E-01 -4.37500000E-01  6.25000000E-02
              3.12500000E-01 -4.37500000E-01  6.25000000E-02
              4.37500000E-01 -4.37500000E-01  6.25000000E-02
             -4.37500000E-01 -4.37500000E-01  6.25000000E-02
             -3.12500000E-01 -4.37500000E-01  6.25000000E-02
             -1.87500000E-01 -4.37500000E-01  6.25000000E-02
             -6.25000000E-02 -4.37500000E-01  6.25000000E-02
              6.25000000E-02 -3.12500000E-01  6.25000000E-02
              1.87500000E-01 -3.12500000E-01  6.25000000E-02
              3.12500000E-01 -3.12500000E-01  6.25000000E-02
              4.37500000E-01 -3.12500000E-01  6.25000000E-02
             -4.37500000E-01 -3.12500000E-01  6.25000000E-02
             -3.12500000E-01 -3.12500000E-01  6.25000000E-02
             -1.87500000E-01 -3.12500000E-01  6.25000000E-02
             -6.25000000E-02 -3.12500000E-01  6.25000000E-02
              6.25000000E-02 -1.87500000E-01  6.25000000E-02
              1.87500000E-01 -1.87500000E-01  6.25000000E-02
                       outvar1 : prtvol=0, do not print more k-points.
   kptrlen    6.02589540E+01
    kptopt         3
  kptrlatt    8  0  0   0  8  0   0  0  8
P    mkmem        32
P   mkqmem        32
P   mk1mem        32
     natom         5
     nband        20
    ndtset         1
     ngfft        54      54      54
      nkpt       512
      nqpt         1
     nstep        70
      nsym        48
    ntypat         3
       occ    2.000000  2.000000  2.000000  2.000000  2.000000  2.000000
              2.000000  2.000000  2.000000  2.000000  2.000000  2.000000
              2.000000  2.000000  2.000000  2.000000  2.000000  2.000000
              2.000000  2.000000
 optdriver         1
    prtden         0
     prtwf         0
       qpt    5.00000000E-01  5.00000000E-01  2.50000000E-01
   rfatpol         1       5
     rfdir         1       1       1
    rfphon         1
    shiftk    5.00000000E-01  5.00000000E-01  5.00000000E-01
   spgroup       221
    strten1   0.0000000000E+00  0.0000000000E+00  0.0000000000E+00
              0.0000000000E+00  0.0000000000E+00  0.0000000000E+00
    symrel    1  0  0   0  1  0   0  0  1      -1  0  0   0 -1  0   0  0 -1
             -1  0  0   0  1  0   0  0 -1       1  0  0   0 -1  0   0  0  1
             -1  0  0   0 -1  0   0  0  1       1  0  0   0  1  0   0  0 -1
              1  0  0   0 -1  0   0  0 -1      -1  0  0   0  1  0   0  0  1
              0  1  0   1  0  0   0  0  1       0 -1  0  -1  0  0   0  0 -1
              0 -1  0   1  0  0   0  0 -1       0  1  0  -1  0  0   0  0  1
              0 -1  0  -1  0  0   0  0  1       0  1  0   1  0  0   0  0 -1
              0  1  0  -1  0  0   0  0 -1       0 -1  0   1  0  0   0  0  1
              0  0  1   1  0  0   0  1  0       0  0 -1  -1  0  0   0 -1  0
              0  0 -1   1  0  0   0 -1  0       0  0  1  -1  0  0   0  1  0
              0  0 -1  -1  0  0   0  1  0       0  0  1   1  0  0   0 -1  0
              0  0  1  -1  0  0   0 -1  0       0  0 -1   1  0  0   0  1  0
              1  0  0   0  0  1   0  1  0      -1  0  0   0  0 -1   0 -1  0
             -1  0  0   0  0  1   0 -1  0       1  0  0   0  0 -1   0  1  0
             -1  0  0   0  0 -1   0  1  0       1  0  0   0  0  1   0 -1  0
              1  0  0   0  0 -1   0 -1  0      -1  0  0   0  0  1   0  1  0
              0  1  0   0  0  1   1  0  0       0 -1  0   0  0 -1  -1  0  0
              0 -1  0   0  0  1  -1  0  0       0  1  0   0  0 -1   1  0  0
              0 -1  0   0  0 -1   1  0  0       0  1  0   0  0  1  -1  0  0
              0  1  0   0  0 -1  -1  0  0       0 -1  0   0  0  1   1  0  0
              0  0  1   0  1  0   1  0  0       0  0 -1   0 -1  0  -1  0  0
              0  0 -1   0  1  0  -1  0  0       0  0  1   0 -1  0   1  0  0
              0  0 -1   0 -1  0   1  0  0       0  0  1   0  1  0  -1  0  0
              0  0  1   0 -1  0  -1  0  0       0  0 -1   0  1  0   1  0  0
    tolvrs    1.00000000E-08
     typat    1  2  3  3  3
       wtk      0.00195    0.00195    0.00195    0.00195    0.00195    0.00195
                0.00195    0.00195    0.00195    0.00195    0.00195    0.00195
                0.00195    0.00195    0.00195    0.00195    0.00195    0.00195
                0.00195    0.00195    0.00195    0.00195    0.00195    0.00195
                0.00195    0.00195    0.00195    0.00195    0.00195    0.00195
                0.00195    0.00195    0.00195    0.00195    0.00195    0.00195
                0.00195    0.00195    0.00195    0.00195    0.00195    0.00195
                0.00195    0.00195    0.00195    0.00195    0.00195    0.00195
                0.00195    0.00195
                outvar1 : prtvol=0, do not print more k-points.
    xangst    0.0000000000E+00  0.0000000000E+00  0.0000000000E+00
              1.9929790677E+00  1.9929790677E+00  1.9929790677E+00
              0.0000000000E+00  1.9929790677E+00  1.9929790677E+00
              1.9929790677E+00  0.0000000000E+00  1.9929790677E+00
              1.9929790677E+00  1.9929790677E+00  0.0000000000E+00
     xcart    0.0000000000E+00  0.0000000000E+00  0.0000000000E+00
              3.7661846265E+00  3.7661846265E+00  3.7661846265E+00
              0.0000000000E+00  3.7661846265E+00  3.7661846265E+00
              3.7661846265E+00  0.0000000000E+00  3.7661846265E+00
              3.7661846265E+00  3.7661846265E+00  0.0000000000E+00
      xred    0.0000000000E+00  0.0000000000E+00  0.0000000000E+00
              5.0000000000E-01  5.0000000000E-01  5.0000000000E-01
              0.0000000000E+00  5.0000000000E-01  5.0000000000E-01
              5.0000000000E-01  0.0000000000E+00  5.0000000000E-01
              5.0000000000E-01  5.0000000000E-01  0.0000000000E+00
     znucl     56.00000   22.00000    8.00000

================================================================================


- Timing analysis has been suppressed with timopt=0



================================================================================

 Suggested references for the acknowledgment of ABINIT usage.

 The users of ABINIT have little formal obligations with respect to the ABINIT group
 (those specified in the GNU General Public License, http://www.gnu.org/copyleft/gpl.txt).
 However, it is common practice in the scientific literature,
 to acknowledge the efforts of people that have made the research possible.
 In this spirit, please find below suggested citations of work written by ABINIT developers,
 corresponding to implementations inside of ABINIT that you have used in the present run.
 Note also that it will be of great value to readers of publications presenting these results,
 to read papers enabling them to understand the theoretical formalism and details
 of the ABINIT implementation.
 For information on why they are suggested, see also http://www.abinit.org/about/?text=acknowledgments.

 [1] First-principles responses of solids to atomic displacements and homogeneous electric fields:,
 implementation of a conjugate-gradient algorithm. X. Gonze, Phys. Rev. B55, 10337 (1997).
 Comment : Non-vanishing rfphon and/or rfelfd, in the norm-conserving case.

 [2] Dynamical matrices, Born effective charges, dielectric permittivity tensors, and ,
 interatomic force constants from density-functional perturbation theory,
 X. Gonze and C. Lee, Phys. Rev. B55, 10355 (1997).
 Comment : Non-vanishing rfphon and/or rfelfd, in the norm-conserving case.

 [3] Ab initio pseudopotentials for electronic structure calculations of poly-atomic systems, 
 using density-functional theory.
 M. Fuchs, M. Scheffler, Comput. Phys. Commun. 119, 67 (1999).
 Comment : Some pseudopotential generated using the FHI code were used.

 [4] A brief introduction to the ABINIT software package.
 X. Gonze, G.-M. Rignanese, M. Verstraete, J.-M. Beuken, Y. Pouillon, R. Caracas, F. Jollet,
 M. Torrent, G. Zerah, M. Mikami, Ph. Ghosez, M. Veithen, J.-Y. Raty, V. Olevano, F. Bruneval,
 L. Reining, R. Godby, G. Onida, D.R. Hamann, and D.C. Allan.
 Z. Kristallogr. 220, 558-562 (2005).
 Comment : the second generic paper describing the ABINIT project. Note that this paper
 should be cited, especially if you are using the GW part of ABINIT, as the authors
 of this part are not in the list of authors of the first paper.
 The .pdf of the latter paper is available at http://www.abinit.org/about/zfk_0505-06_558-562.pdf.
 Note that it should not redistributed (Copyright by Oldenburg Wissenshaftverlag,
 the licence allows the authors to put it on the Web).

 [5] First-principles computation of material properties : the ABINIT software project. 
 X. Gonze, J.-M. Beuken, R. Caracas, F. Detraux, M. Fuchs, G.-M. Rignanese, L. Sindic,
 M. Verstraete, G. Zerah, F. Jollet, M. Torrent, A. Roy, M. Mikami, Ph. Ghosez, J.-Y. Raty, D.C. Allan.
 Computational Materials Science 25, 478-492 (2002). http://dx.doi.org/10.1016/S0927-0256(02)00325-7
 Comment : the original paper describing the ABINIT project.
-
- Proc.   0 individual time (sec): cpu=      17709.9  wall=      17709.9

================================================================================

 Calculation completed.
.Delivered   15 WARNINGs and   0 COMMENTs to log file.
+Overall time at end (sec) : cpu=     283356.7  wall=     283356.8
