
.Version 5.6.4  of ABINIT 
.(MPI version, prepared for a x86_64_linux_gcc4.3 computer) 

.Copyright (C) 1998-2008 ABINIT group . 
 ABINIT comes with ABSOLUTELY NO WARRANTY.
 It is free software, and you are welcome to redistribute it
 under certain conditions (GNU General Public License,
 see ~abinit/COPYING or http://www.gnu.org/copyleft/gpl.txt).

 ABINIT is a project of the Universite Catholique de Louvain,
 Corning Inc. and other collaborators, see ~abinit/doc/developers/contributors.txt .
 Please read ~abinit/doc/users/acknowledgments.html for suggested
 acknowledgments of the ABINIT effort.
 For more information, see http://www.abinit.org .

.Starting date : Tue 20 Jan 2009.
  
- input  file    -> perovskite-optcell2-000.in
- output file    -> perovskite-optcell2-000.out
- root for input  files -> perovskite-optcell2-000_i
- root for output files -> perovskite-optcell2-000_o


 Symmetries : space group Pm -3 m (#221); Bravais cP (primitive cubic)
================================================================================
 Values of the parameters that define the memory need of the present run
   intxc =         0  ionmov =         2    iscf =         7 xclevel =         1
  lmnmax =         4   lnmax =         4   mband =        21  mffmem =         1
P  mgfft =        54   mkmem =         5 mpssoang=         3     mpw =      9639
  mqgrid =      3001   natom =         5    nfft =    157464    nkpt =        20
  nloalg =         4  nspden =         1 nspinor =         1  nsppol =         1
    nsym =        48  n1xccc =         0  ntypat =         3  occopt =         1
================================================================================
P This job should need less than                      63.797 Mbytes of memory.
  Rough estimation (10% accuracy) of disk space for files :
  WF disk file :     61.775 Mbytes ; DEN or POT disk file :      1.203 Mbytes.
================================================================================

 -outvars: echo values of preprocessed input variables --------
     acell    7.4434230817E+00  7.4434230817E+00  7.4434230817E+00 Bohr
       amu    1.37327000E+02  4.78800000E+01  1.59994000E+01
    diemac    1.20000000E+01
   dilatmx    1.20000000E+00
      ecut    4.30000000E+01 Hartree
    ecutsm    3.00000000E+00 Hartree
    ionmov         2
       ixc         3
       kpt    6.25000000E-02  6.25000000E-02  6.25000000E-02
              1.87500000E-01  6.25000000E-02  6.25000000E-02
              3.12500000E-01  6.25000000E-02  6.25000000E-02
              4.37500000E-01  6.25000000E-02  6.25000000E-02
              1.87500000E-01  1.87500000E-01  6.25000000E-02
              3.12500000E-01  1.87500000E-01  6.25000000E-02
              4.37500000E-01  1.87500000E-01  6.25000000E-02
              3.12500000E-01  3.12500000E-01  6.25000000E-02
              4.37500000E-01  3.12500000E-01  6.25000000E-02
              4.37500000E-01  4.37500000E-01  6.25000000E-02
              1.87500000E-01  1.87500000E-01  1.87500000E-01
              3.12500000E-01  1.87500000E-01  1.87500000E-01
              4.37500000E-01  1.87500000E-01  1.87500000E-01
              3.12500000E-01  3.12500000E-01  1.87500000E-01
              4.37500000E-01  3.12500000E-01  1.87500000E-01
              4.37500000E-01  4.37500000E-01  1.87500000E-01
              3.12500000E-01  3.12500000E-01  3.12500000E-01
              4.37500000E-01  3.12500000E-01  3.12500000E-01
              4.37500000E-01  4.37500000E-01  3.12500000E-01
              4.37500000E-01  4.37500000E-01  4.37500000E-01
   kptrlen    5.95473847E+01
    kptopt         1
  kptrlatt    8  0  0   0  8  0   0  0  8
P    mkmem         5
     natom         5
     nband        21
     ngfft        54      54      54
      nkpt        20
     nstep        45
      nsym        48
     ntime        15
    ntypat         3
       occ    2.000000  2.000000  2.000000  2.000000  2.000000  2.000000
              2.000000  2.000000  2.000000  2.000000  2.000000  2.000000
              2.000000  2.000000  2.000000  2.000000  2.000000  2.000000
              2.000000  2.000000  0.000000
   optcell         2
    prtden         0
     prtwf         0
    shiftk    5.00000000E-01  5.00000000E-01  5.00000000E-01
   spgroup       221
    symrel    1  0  0   0  1  0   0  0  1      -1  0  0   0 -1  0   0  0 -1
             -1  0  0   0  1  0   0  0 -1       1  0  0   0 -1  0   0  0  1
             -1  0  0   0 -1  0   0  0  1       1  0  0   0  1  0   0  0 -1
              1  0  0   0 -1  0   0  0 -1      -1  0  0   0  1  0   0  0  1
              0  1  0   1  0  0   0  0  1       0 -1  0  -1  0  0   0  0 -1
              0 -1  0   1  0  0   0  0 -1       0  1  0  -1  0  0   0  0  1
              0 -1  0  -1  0  0   0  0  1       0  1  0   1  0  0   0  0 -1
              0  1  0  -1  0  0   0  0 -1       0 -1  0   1  0  0   0  0  1
              0  0  1   1  0  0   0  1  0       0  0 -1  -1  0  0   0 -1  0
              0  0 -1   1  0  0   0 -1  0       0  0  1  -1  0  0   0  1  0
              0  0 -1  -1  0  0   0  1  0       0  0  1   1  0  0   0 -1  0
              0  0  1  -1  0  0   0 -1  0       0  0 -1   1  0  0   0  1  0
              1  0  0   0  0  1   0  1  0      -1  0  0   0  0 -1   0 -1  0
             -1  0  0   0  0  1   0 -1  0       1  0  0   0  0 -1   0  1  0
             -1  0  0   0  0 -1   0  1  0       1  0  0   0  0  1   0 -1  0
              1  0  0   0  0 -1   0 -1  0      -1  0  0   0  0  1   0  1  0
              0  1  0   0  0  1   1  0  0       0 -1  0   0  0 -1  -1  0  0
              0 -1  0   0  0  1  -1  0  0       0  1  0   0  0 -1   1  0  0
              0 -1  0   0  0 -1   1  0  0       0  1  0   0  0  1  -1  0  0
              0  1  0   0  0 -1  -1  0  0       0 -1  0   0  0  1   1  0  0
              0  0  1   0  1  0   1  0  0       0  0 -1   0 -1  0  -1  0  0
              0  0 -1   0  1  0  -1  0  0       0  0  1   0 -1  0   1  0  0
              0  0 -1   0 -1  0   1  0  0       0  0  1   0  1  0  -1  0  0
              0  0  1   0 -1  0  -1  0  0       0  0 -1   0  1  0   1  0  0
    toldfe    1.00000000E-10 Hartree
     typat    1  2  3  3  3
       wtk      0.01563    0.04688    0.04688    0.04688    0.04688    0.09375
                0.09375    0.04688    0.09375    0.04688    0.01563    0.04688
                0.04688    0.04688    0.09375    0.04688    0.01563    0.04688
                0.04688    0.01563
    xangst    0.0000000000E+00  0.0000000000E+00  0.0000000000E+00
              1.9694449244E+00  1.9694449244E+00  1.9694449244E+00
              0.0000000000E+00  1.9694449244E+00  1.9694449244E+00
              1.9694449244E+00  0.0000000000E+00  1.9694449244E+00
              1.9694449244E+00  1.9694449244E+00  0.0000000000E+00
     xcart    0.0000000000E+00  0.0000000000E+00  0.0000000000E+00
              3.7217115408E+00  3.7217115408E+00  3.7217115408E+00
              0.0000000000E+00  3.7217115408E+00  3.7217115408E+00
              3.7217115408E+00  0.0000000000E+00  3.7217115408E+00
              3.7217115408E+00  3.7217115408E+00  0.0000000000E+00
      xred    0.0000000000E+00  0.0000000000E+00  0.0000000000E+00
              5.0000000000E-01  5.0000000000E-01  5.0000000000E-01
              0.0000000000E+00  5.0000000000E-01  5.0000000000E-01
              5.0000000000E-01  0.0000000000E+00  5.0000000000E-01
              5.0000000000E-01  5.0000000000E-01  0.0000000000E+00
     znucl     56.00000   22.00000    8.00000

================================================================================

 chkinp: Checking input parameters for consistency.

================================================================================
== DATASET  1 ==================================================================

 Real(R)+Recip(G) space primitive vectors, cartesian coordinates (Bohr,Bohr^-1):
 R(1)=  7.4434231  0.0000000  0.0000000  G(1)=  0.1343468  0.0000000  0.0000000
 R(2)=  0.0000000  7.4434231  0.0000000  G(2)=  0.0000000  0.1343468  0.0000000
 R(3)=  0.0000000  0.0000000  7.4434231  G(3)=  0.0000000  0.0000000  0.1343468
 Unit cell volume ucvol=  4.1239949E+02 bohr^3
 Angles (23,13,12)=  9.00000000E+01  9.00000000E+01  9.00000000E+01 degrees

 getcut: wavevector=  0.0000  0.0000  0.0000  ngfft=  54  54  54
         ecut(hartree)=     61.920   => boxcut(ratio)=   2.04805

--- Pseudopotential description ------------------------------------------------
- pspini: atom type   1  psp file is 56ba.psp.mod
- pspatm: opening atomic psp file    56ba.psp.mod
 Barium.ion 5s2.5p6.6s0.5d0 rcs=rcp=rcd=1.7 ecut=22/28
  56.00000  10.00000    940000                znucl, zion, pspdat
    4    3    2    2      2001   0.00000      pspcod,pspxc,lmax,lloc,mmax,r2well
    0   0.000   0.000    2   1.6965489        l,e99.0,e99.9,nproj,rcpsp
   0.00000000   0.00000000   0.00000000   0.00000000     rms, ekb1, ekb2, epsatm
    1   0.000   0.000    2   1.6965489        l,e99.0,e99.9,nproj,rcpsp
   0.00000000   0.00000000   0.00000000   0.00000000     rms, ekb1, ekb2, epsatm
    2   0.000   0.000    0   1.6965489        l,e99.0,e99.9,nproj,rcpsp
   0.00000000   0.00000000   0.00000000   0.00000000     rms, ekb1, ekb2, epsatm
    0.00000000000000    0.00000000000000    0.00000000000000   rchrg,fchrg,qchrg
 pspatm: epsatm=   43.25917021
         --- l  ekb(1:nproj) -->
             0   -9.646692   27.266828
             1   -6.938476   21.148499
 pspatm: atomic psp has been read  and splines computed

- pspini: atom type   2  psp file is 22ti.psp.mod
- pspatm: opening atomic psp file    22ti.psp.mod
 Titane.ion 3s2.3p6.4s0.3d2 rcd=1.65, rcs=rc0=1.25, ecut 32/54
  22.00000  12.00000    940000                znucl, zion, pspdat
    4    3    2    2      2001   0.00000      pspcod,pspxc,lmax,lloc,mmax,r2well
    0   0.000   0.000    2   1.2533577        l,e99.0,e99.9,nproj,rcpsp
   0.00000000   0.00000000   0.00000000   0.00000000     rms, ekb1, ekb2, epsatm
    1   0.000   0.000    2   1.2533577        l,e99.0,e99.9,nproj,rcpsp
   0.00000000   0.00000000   0.00000000   0.00000000     rms, ekb1, ekb2, epsatm
    2   0.000   0.000    0   1.6491622        l,e99.0,e99.9,nproj,rcpsp
   0.00000000   0.00000000   0.00000000   0.00000000     rms, ekb1, ekb2, epsatm
    0.00000000000000    0.00000000000000    0.00000000000000   rchrg,fchrg,qchrg
 pspatm: epsatm=    4.67708954
         --- l  ekb(1:nproj) -->
             0    9.517316   -2.344682
             1    5.011406   -0.741179
 pspatm: atomic psp has been read  and splines computed

- pspini: atom type   3  psp file is 8o.phoney.mod
- pspatm: opening atomic psp file    8o.phoney.mod
 Compromise psp for oxygen with rc=1.5 ec=25 double reference
   8.00000   6.00000    980710                znucl, zion, pspdat
    5    3    1    1       600   0.00000      pspcod,pspxc,lmax,lloc,mmax,r2well
    1.000000E-06    3.075239E-02              r1 and al (Hamman grid)
    0   0.000   0.000    2   1.4915765        l,e99.0,e99.9,nproj,rcpsp
   0.00000000   0.00000000   0.00000000   0.00000000     rms, ekb1, ekb2, epsatm
    1   0.000   0.000    0   1.4915765        l,e99.0,e99.9,nproj,rcpsp
   0.00000000   0.00000000   0.00000000   0.00000000     rms, ekb1, ekb2, epsatm
    0.00000000000000    0.00000000000000    0.00000000000000   rchrg,fchrg,qchrg
 pspatm: epsatm=    1.43569736
         --- l  ekb(1:nproj) -->
             0    5.763361   -1.798421
 pspatm: atomic psp has been read  and splines computed

   2.08973407E+03                                ecore*ucvol(ha*bohr**3)
--------------------------------------------------------------------------------

P newkpt: treating     21 bands with npw=    9639 for ikpt=   1 by node    0
P newkpt: treating     21 bands with npw=    9596 for ikpt=   2 by node    0
P newkpt: treating     21 bands with npw=    9596 for ikpt=   3 by node    0
P newkpt: treating     21 bands with npw=    9596 for ikpt=   4 by node    0
P newkpt: treating     21 bands with npw=    9582 for ikpt=   5 by node    0
P newkpt: treating     21 bands with npw=    9592 for ikpt=   6 by node    1
P newkpt: treating     21 bands with npw=    9598 for ikpt=   7 by node    1
P newkpt: treating     21 bands with npw=    9584 for ikpt=   8 by node    1
P newkpt: treating     21 bands with npw=    9602 for ikpt=   9 by node    1
P newkpt: treating     21 bands with npw=    9593 for ikpt=  10 by node    1
P newkpt: treating     21 bands with npw=    9594 for ikpt=  11 by node    2
P newkpt: treating     21 bands with npw=    9589 for ikpt=  12 by node    2
P newkpt: treating     21 bands with npw=    9596 for ikpt=  13 by node    2
P newkpt: treating     21 bands with npw=    9604 for ikpt=  14 by node    2
P newkpt: treating     21 bands with npw=    9602 for ikpt=  15 by node    2
P newkpt: treating     21 bands with npw=    9604 for ikpt=  16 by node    3
P newkpt: treating     21 bands with npw=    9612 for ikpt=  17 by node    3
P newkpt: treating     21 bands with npw=    9614 for ikpt=  18 by node    3
P newkpt: treating     21 bands with npw=    9621 for ikpt=  19 by node    3
P newkpt: treating     21 bands with npw=    9604 for ikpt=  20 by node    3

 setup2: Arith. and geom. avg. npw (full set) are    9599.031    9599.026

================================================================================

 BROYDEN STEP NUMBER   0  ------------------------------------------------------

     iter   Etot(hartree)      deltaE(h)  residm     vres2    diffor    maxfor
 ETOT  1  -130.95473597189    -1.310E+02 5.983E-01 1.984E+03 0.000E+00 0.000E+00
 ETOT  2  -131.78170490759    -8.270E-01 2.449E-01 6.186E+02 0.000E+00 0.000E+00
 ETOT  3  -131.82424673652    -4.254E-02 3.436E-02 8.965E+01 0.000E+00 0.000E+00
 ETOT  4  -131.83864559054    -1.440E-02 2.781E-02 1.111E+01 0.000E+00 0.000E+00
 ETOT  5  -131.84154414950    -2.899E-03 4.611E-03 4.271E+00 0.000E+00 0.000E+00
 ETOT  6  -131.84249224846    -9.481E-04 3.549E-03 2.087E-01 0.000E+00 0.000E+00
 ETOT  7  -131.84267132210    -1.791E-04 1.468E-03 2.654E-01 0.000E+00 0.000E+00
 ETOT  8  -131.84280205299    -1.307E-04 1.551E-03 6.860E-03 0.000E+00 0.000E+00
 ETOT  9  -131.84283218341    -3.013E-05 9.369E-04 1.166E-02 0.000E+00 0.000E+00
 ETOT 10  -131.84284695140    -1.477E-05 9.742E-04 3.044E-03 0.000E+00 0.000E+00
 ETOT 11  -131.84285297503    -6.024E-06 6.991E-04 7.669E-05 0.000E+00 0.000E+00
 ETOT 12  -131.84285497617    -2.001E-06 6.925E-04 9.153E-04 0.000E+00 0.000E+00
 ETOT 13  -131.84285613113    -1.155E-06 6.586E-04 1.847E-05 0.000E+00 0.000E+00
 ETOT 14  -131.84285650581    -3.747E-07 7.428E-04 3.357E-04 0.000E+00 0.000E+00
 ETOT 15  -131.84285671579    -2.100E-07 7.637E-04 4.832E-04 0.000E+00 0.000E+00
 ETOT 16  -131.84285679227    -7.648E-08 7.856E-04 5.497E-04 0.000E+00 0.000E+00
 ETOT 17  -131.84285693104    -1.388E-07 6.687E-04 9.170E-05 0.000E+00 0.000E+00
 ETOT 18  -131.84285695182    -2.078E-08 6.464E-04 1.162E-04 0.000E+00 0.000E+00
 ETOT 19  -131.84285698678    -3.496E-08 2.256E-03 1.926E-05 0.000E+00 0.000E+00
 ETOT 20  -131.84285699525    -8.467E-09 4.042E-04 3.202E-06 0.000E+00 0.000E+00
 ETOT 21  -131.84285699106     4.183E-09 1.264E-03 4.483E-05 0.000E+00 0.000E+00
 ETOT 22  -131.84285696943     2.163E-08 3.855E-04 1.611E-04 0.000E+00 0.000E+00
 ETOT 23  -131.84285699153    -2.210E-08 7.109E-04 5.494E-05 0.000E+00 0.000E+00
 ETOT 24  -131.84285700222    -1.069E-08 3.618E-04 1.244E-05 0.000E+00 0.000E+00
 ETOT 25  -131.84285700151     7.132E-10 4.127E-04 2.594E-05 0.000E+00 0.000E+00
 ETOT 26  -131.84285700262    -1.113E-09 3.342E-04 1.419E-05 0.000E+00 0.000E+00
 ETOT 27  -131.84285700363    -1.013E-09 3.865E-04 2.525E-06 0.000E+00 0.000E+00
 ETOT 28  -131.84285700377    -1.337E-10 3.041E-04 2.179E-06 0.000E+00 0.000E+00
 ETOT 29  -131.84285700376     1.003E-11 3.567E-04 3.109E-06 0.000E+00 0.000E+00
 ETOT 30  -131.84285700377    -1.015E-11 2.731E-04 3.626E-06 0.000E+00 0.000E+00

 At SCF step   30, etot is converged :
  for the second time, diff in etot=  1.015E-11 < toldfe=  1.000E-10

 Cartesian components of stress tensor (hartree/bohr^3)
  sigma(1 1)=  1.65096151E-07  sigma(3 2)=  0.00000000E+00
  sigma(2 2)=  1.65096151E-07  sigma(3 1)=  0.00000000E+00
  sigma(3 3)=  1.65096151E-07  sigma(2 1)=  0.00000000E+00

 Unit cell characteristics :
  acell=  7.4434230817E+00  7.4434230817E+00  7.4434230817E+00
  rprim=  1.0000000000E+00  0.0000000000E+00  0.0000000000E+00
          0.0000000000E+00  1.0000000000E+00  0.0000000000E+00
          0.0000000000E+00  0.0000000000E+00  1.0000000000E+00
  ucvol=  4.1239948526E+02 Bohr^3
  lengths=  7.4434230817E+00  7.4434230817E+00  7.4434230817E+00 Bohr
  angles (23,13,12)=  90.00000000  90.00000000  90.00000000 degrees
 Cartesian coordinates (bohr)
  0.00000000000000E+00  0.00000000000000E+00  0.00000000000000E+00
  3.72171154085000E+00  3.72171154085000E+00  3.72171154085000E+00
  0.00000000000000E+00  3.72171154085000E+00  3.72171154085000E+00
  3.72171154085000E+00  0.00000000000000E+00  3.72171154085000E+00
  3.72171154085000E+00  3.72171154085000E+00  0.00000000000000E+00
 Cartesian forces (hart/bohr); max,rms= 0.00000E+00 0.00000E+00 (free atoms)
 -0.00000000000000E+00 -0.00000000000000E+00 -0.00000000000000E+00
 -0.00000000000000E+00 -0.00000000000000E+00 -0.00000000000000E+00
 -0.00000000000000E+00 -0.00000000000000E+00 -0.00000000000000E+00
 -0.00000000000000E+00 -0.00000000000000E+00 -0.00000000000000E+00
 -0.00000000000000E+00 -0.00000000000000E+00 -0.00000000000000E+00

 At the end of Broyden step  0, total energy= -1.31842857003767E+02 Ha.


 At Broyd/MD step   0, gradients are converged :
  max grad (force/stress) = 1.6510E-05 < tolmxf= 5.0000E-05 ha/bohr (free atoms)

================================================================================

 ----iterations are completed or convergence reached----

 Mean square residual over all n,k,spin=   2.2360E-06; max=  2.7309E-04
   0.0625  0.0625  0.0625    1  4.56652E-06 kpt; spin; max resid(k); each band:
 8.08E-15 2.71E-14 2.69E-14 2.69E-14 4.74E-16 7.43E-15 1.60E-14 1.90E-14
 2.35E-15 2.44E-15 2.37E-15 3.17E-14 3.22E-14 3.17E-14 1.06E-13 9.38E-14
 2.90E-13 6.56E-11 2.53E-11 7.18E-10 4.57E-06
   0.1875  0.0625  0.0625    1  3.42600E-06 kpt; spin; max resid(k); each band:
 8.97E-15 2.63E-14 2.68E-14 2.67E-14 7.75E-16 9.03E-15 1.55E-14 2.17E-14
 3.38E-15 4.12E-15 4.80E-15 1.05E-13 4.57E-14 2.74E-14 3.53E-13 3.44E-13
 2.76E-14 3.27E-13 1.80E-13 2.79E-12 3.43E-06
   0.3125  0.0625  0.0625    1  2.41063E-07 kpt; spin; max resid(k); each band:
 9.84E-15 2.66E-14 2.64E-14 2.64E-14 1.17E-15 1.55E-14 1.56E-14 2.54E-14
 3.42E-15 4.00E-15 5.40E-15 3.54E-13 4.45E-14 2.59E-14 7.18E-13 5.15E-13
 3.81E-13 2.77E-14 1.13E-13 1.26E-13 2.41E-07
   0.4375  0.0625  0.0625    1  4.94848E-08 kpt; spin; max resid(k); each band:
 1.03E-14 2.73E-14 2.63E-14 2.62E-14 1.44E-15 1.07E-14 1.57E-14 2.43E-14
 5.17E-15 5.35E-15 8.05E-15 4.39E-13 3.09E-14 2.40E-14 5.81E-13 4.93E-13
 5.95E-13 3.69E-13 2.47E-14 4.82E-14 4.95E-08
   0.1875  0.1875  0.0625    1  2.75341E-05 kpt; spin; max resid(k); each band:
 9.93E-15 2.62E-14 2.57E-14 2.66E-14 8.77E-16 1.04E-14 1.97E-14 2.02E-14
 3.09E-15 3.23E-15 5.33E-15 3.86E-14 4.03E-13 4.63E-14 4.58E-13 5.87E-13
 3.19E-14 1.90E-14 1.49E-13 4.53E-13 2.75E-05
   0.3125  0.1875  0.0625    1  2.21659E-05 kpt; spin; max resid(k); each band:
 1.08E-14 2.62E-14 2.55E-14 2.63E-14 1.01E-15 1.60E-14 1.94E-14 2.55E-14
 6.52E-15 5.20E-15 7.10E-15 2.20E-13 3.96E-13 3.34E-13 5.91E-14 7.91E-13
 1.95E-14 2.59E-14 8.85E-14 1.38E-13 2.22E-05
   0.4375  0.1875  0.0625    1  6.96459E-06 kpt; spin; max resid(k); each band:
 1.13E-14 2.68E-14 2.52E-14 2.62E-14 1.09E-15 1.30E-14 1.81E-14 2.48E-14
 4.45E-15 4.97E-15 5.62E-15 4.08E-13 5.66E-13 2.03E-13 3.51E-14 7.18E-13
 2.32E-14 3.94E-14 1.07E-13 1.38E-13 6.96E-06
   0.3125  0.3125  0.0625    1  2.73093E-04 kpt; spin; max resid(k); each band:
 1.18E-14 2.57E-14 2.54E-14 2.61E-14 7.58E-16 1.95E-14 2.52E-14 2.40E-14
 2.35E-15 4.11E-15 2.74E-15 2.42E-13 5.67E-13 5.57E-13 4.76E-14 7.18E-13
 2.61E-14 9.16E-14 2.90E-14 5.19E-14 2.73E-04
   0.4375  0.3125  0.0625    1  1.49047E-05 kpt; spin; max resid(k); each band:
 1.23E-14 2.63E-14 2.51E-14 2.60E-14 5.69E-16 1.55E-14 2.35E-14 2.72E-14
 5.78E-15 3.95E-15 1.90E-15 2.64E-13 5.94E-13 5.26E-13 5.20E-14 8.31E-13
 4.34E-14 1.30E-14 1.26E-14 1.45E-14 1.49E-05
   0.4375  0.4375  0.0625    1  1.42612E-04 kpt; spin; max resid(k); each band:
 1.28E-14 2.57E-14 2.55E-14 2.58E-14 1.85E-16 1.55E-14 2.45E-14 2.53E-14
 1.23E-15 1.78E-15 2.21E-15 2.20E-13 5.70E-13 5.34E-13 6.67E-13 3.79E-13
 5.79E-14 6.63E-15 6.94E-15 2.36E-14 1.43E-04
   0.1875  0.1875  0.1875    1  3.32914E-06 kpt; spin; max resid(k); each band:
 1.10E-14 2.62E-14 2.55E-14 2.55E-14 8.71E-16 1.14E-14 1.97E-14 1.95E-14
 3.64E-15 3.47E-15 1.47E-15 3.16E-14 3.31E-13 4.33E-13 5.20E-13 7.01E-13
 4.00E-14 6.53E-15 4.28E-13 5.27E-13 3.33E-06
   0.3125  0.1875  0.1875    1  6.32277E-05 kpt; spin; max resid(k); each band:
 1.19E-14 2.58E-14 2.54E-14 2.51E-14 8.47E-16 1.51E-14 1.93E-14 2.54E-14
 3.84E-15 5.03E-15 1.83E-15 1.94E-13 4.85E-13 3.62E-13 3.91E-13 7.30E-13
 4.80E-14 2.62E-13 1.36E-13 7.95E-14 6.32E-05
   0.4375  0.1875  0.1875    1  1.65181E-05 kpt; spin; max resid(k); each band:
 1.25E-14 2.66E-14 2.51E-14 2.49E-14 8.13E-16 1.48E-14 1.93E-14 2.49E-14
 5.95E-15 4.53E-15 8.86E-16 3.69E-13 5.71E-13 1.59E-13 1.42E-13 7.49E-13
 6.12E-14 2.00E-13 1.92E-13 1.41E-14 1.65E-05
   0.3125  0.3125  0.1875    1  9.13631E-05 kpt; spin; max resid(k); each band:
 1.29E-14 2.53E-14 2.51E-14 2.49E-14 6.03E-16 1.79E-14 2.49E-14 2.36E-14
 5.17E-15 3.93E-15 3.20E-16 1.51E-13 5.65E-13 4.77E-13 2.45E-13 6.67E-13
 1.13E-13 1.57E-13 2.69E-14 2.78E-14 9.14E-05
   0.4375  0.3125  0.1875    1  1.15920E-04 kpt; spin; max resid(k); each band:
 1.35E-14 2.58E-14 2.48E-14 2.46E-14 4.20E-16 1.72E-14 2.38E-14 2.69E-14
 4.83E-15 3.82E-15 1.45E-15 2.31E-13 4.05E-13 4.51E-13 2.21E-13 8.21E-13
 1.64E-13 6.16E-14 1.26E-14 1.46E-14 1.16E-04
   0.4375  0.4375  0.1875    1  6.45025E-05 kpt; spin; max resid(k); each band:
 1.40E-14 2.53E-14 2.52E-14 2.43E-14 1.35E-16 1.84E-14 2.43E-14 2.84E-14
 5.51E-15 5.54E-15 5.87E-15 1.73E-13 5.23E-13 6.89E-13 2.16E-13 7.04E-13
 3.45E-13 1.39E-14 7.31E-15 1.89E-14 6.45E-05
   0.3125  0.3125  0.3125    1  6.29927E-07 kpt; spin; max resid(k); each band:
 1.40E-14 2.49E-14 2.45E-14 2.46E-14 3.78E-16 1.78E-14 2.35E-14 2.34E-14
 4.01E-15 4.09E-15 2.69E-15 3.33E-14 5.76E-13 1.69E-13 5.37E-13 8.98E-14
 6.79E-13 4.68E-14 2.15E-14 2.13E-15 6.30E-07
   0.4375  0.3125  0.3125    1  8.53780E-05 kpt; spin; max resid(k); each band:
 1.46E-14 2.53E-14 2.41E-14 2.42E-14 2.14E-16 2.02E-14 2.53E-14 2.35E-14
 4.70E-15 4.93E-15 5.24E-15 1.61E-13 4.65E-13 5.57E-13 4.78E-13 6.77E-13
 7.06E-13 1.98E-14 2.42E-14 1.98E-14 8.54E-05
   0.4375  0.4375  0.3125    1  2.68062E-06 kpt; spin; max resid(k); each band:
 1.52E-14 2.46E-14 2.46E-14 2.39E-14 6.48E-17 2.46E-14 2.43E-14 2.69E-14
 4.93E-15 4.49E-15 4.29E-15 6.69E-14 5.43E-13 5.41E-13 7.97E-13 6.58E-13
 5.79E-13 1.81E-14 8.51E-15 6.91E-15 2.68E-06
   0.4375  0.4375  0.4375    1  1.18327E-11 kpt; spin; max resid(k); each band:
 1.56E-14 2.41E-14 2.41E-14 2.41E-14 1.65E-17 2.31E-14 2.41E-14 2.42E-14
 4.43E-15 4.28E-15 4.99E-15 1.91E-14 1.62E-13 1.73E-13 5.66E-13 7.44E-13
 6.83E-13 7.21E-15 8.38E-15 5.21E-15 1.18E-11
 reduced coordinates (array xred) for    5 atoms
       0.000000000000      0.000000000000      0.000000000000
       0.500000000000      0.500000000000      0.500000000000
       0.000000000000      0.500000000000      0.500000000000
       0.500000000000      0.000000000000      0.500000000000
       0.500000000000      0.500000000000      0.000000000000
 rms dE/dt=  0.0000E+00; max dE/dt=  0.0000E+00; dE/dt below (all hartree)
    1       0.000000000000      0.000000000000      0.000000000000
    2       0.000000000000      0.000000000000      0.000000000000
    3       0.000000000000      0.000000000000      0.000000000000
    4       0.000000000000      0.000000000000      0.000000000000
    5       0.000000000000      0.000000000000      0.000000000000

 cartesian coordinates (angstrom) at end:
    1      0.00000000000000     0.00000000000000     0.00000000000000
    2      1.96944492436419     1.96944492436419     1.96944492436419
    3      0.00000000000000     1.96944492436419     1.96944492436419
    4      1.96944492436419     0.00000000000000     1.96944492436419
    5      1.96944492436419     1.96944492436419     0.00000000000000

 cartesian forces (hartree/bohr) at end:
    1     -0.00000000000000    -0.00000000000000    -0.00000000000000
    2     -0.00000000000000    -0.00000000000000    -0.00000000000000
    3     -0.00000000000000    -0.00000000000000    -0.00000000000000
    4     -0.00000000000000    -0.00000000000000    -0.00000000000000
    5     -0.00000000000000    -0.00000000000000    -0.00000000000000
 frms,max,avg= 0.0000000E+00 0.0000000E+00   0.000E+00  0.000E+00  0.000E+00 h/b

 cartesian forces (eV/Angstrom) at end:
    1     -0.00000000000000    -0.00000000000000    -0.00000000000000
    2     -0.00000000000000    -0.00000000000000    -0.00000000000000
    3     -0.00000000000000    -0.00000000000000    -0.00000000000000
    4     -0.00000000000000    -0.00000000000000    -0.00000000000000
    5     -0.00000000000000    -0.00000000000000    -0.00000000000000
 frms,max,avg= 0.0000000E+00 0.0000000E+00   0.000E+00  0.000E+00  0.000E+00 e/A
 length scales=  7.443423081700  7.443423081700  7.443423081700 bohr
              =  3.938889848728  3.938889848728  3.938889848728 angstroms
 prteigrs : about to open file perovskite-optcell2-000_o_EIG
 Fermi (or HOMO) energy (hartree) =   0.26784   Average Vxc (hartree)=  -0.43866
 Eigenvalues (hartree) for nkpt=  20  k points:
 kpt#   1, nband= 21, wtk=  0.01563, kpt=  0.0625  0.0625  0.0625 (reduced coord)
  -1.77870  -0.91843  -0.91843  -0.91843  -0.63540  -0.34183  -0.31543  -0.31543
  -0.09012  -0.09012  -0.08699   0.17939   0.18409   0.18409   0.21755   0.21755
   0.22746   0.25523   0.26232   0.26232   0.34292
 kpt#   2, nband= 21, wtk=  0.04688, kpt=  0.1875  0.0625  0.0625 (reduced coord)
  -1.77869  -0.91914  -0.91840  -0.91839  -0.63391  -0.34331  -0.31490  -0.31378
  -0.08877  -0.08859  -0.08125   0.16185   0.17850   0.17990   0.20299   0.20664
   0.22376   0.23433   0.25458   0.25484   0.34434
 kpt#   3, nband= 21, wtk=  0.04688, kpt=  0.3125  0.0625  0.0625 (reduced coord)
  -1.77866  -0.92015  -0.91835  -0.91835  -0.63176  -0.34810  -0.31416  -0.30806
  -0.08638  -0.08500  -0.07513   0.13688   0.16940   0.17125   0.19111   0.19259
   0.21492   0.21908   0.24499   0.24617   0.34672
 kpt#   4, nband= 21, wtk=  0.04688, kpt=  0.4375  0.0625  0.0625 (reduced coord)
  -1.77864  -0.92087  -0.91832  -0.91832  -0.63020  -0.35239  -0.31362  -0.30258
  -0.08478  -0.08164  -0.07158   0.11946   0.16322   0.16445   0.17830   0.18710
   0.20952   0.21567   0.23785   0.24080   0.34846
 kpt#   5, nband= 21, wtk=  0.04688, kpt=  0.1875  0.1875  0.0625 (reduced coord)
  -1.77867  -0.91912  -0.91909  -0.91837  -0.63257  -0.34229  -0.31465  -0.31329
  -0.09035  -0.08749  -0.07633   0.15097   0.16898   0.17633   0.18751   0.19716
   0.21900   0.23016   0.24575   0.25218   0.36266
 kpt#   6, nband= 21, wtk=  0.09375, kpt=  0.3125  0.1875  0.0625 (reduced coord)
  -1.77864  -0.92011  -0.91906  -0.91833  -0.63064  -0.34389  -0.31350  -0.30977
  -0.08940  -0.08491  -0.07395   0.13241   0.15768   0.16588   0.17395   0.18804
   0.21108   0.22846   0.23558   0.24790   0.36594
 kpt#   7, nband= 21, wtk=  0.09375, kpt=  0.4375  0.1875  0.0625 (reduced coord)
  -1.77863  -0.92081  -0.91902  -0.91830  -0.62925  -0.34659  -0.31256  -0.30539
  -0.08820  -0.08044  -0.07571   0.11729   0.15027   0.15858   0.16468   0.18468
   0.21307   0.22328   0.23097   0.24150   0.36730
 kpt#   8, nband= 21, wtk=  0.04688, kpt=  0.3125  0.3125  0.0625 (reduced coord)
  -1.77862  -0.92007  -0.92003  -0.91829  -0.62903  -0.33923  -0.31344  -0.30965
  -0.09082  -0.08505  -0.07469   0.12438   0.14316   0.14433   0.17133   0.17726
   0.20959   0.22458   0.23480   0.25577   0.39135
 kpt#   9, nband= 21, wtk=  0.09375, kpt=  0.4375  0.3125  0.0625 (reduced coord)
  -1.77860  -0.92075  -0.92001  -0.91826  -0.62788  -0.33766  -0.31197  -0.30895
  -0.09050  -0.08537  -0.07613   0.11419   0.12926   0.13821   0.16495   0.17436
   0.21113   0.22484   0.23340   0.25790   0.39101
 kpt#  10, nband= 21, wtk=  0.04688, kpt=  0.4375  0.4375  0.0625 (reduced coord)
  -1.77858  -0.92070  -0.92069  -0.91824  -0.62689  -0.33054  -0.31251  -0.31110
  -0.09115  -0.08985  -0.07551   0.10870   0.11767   0.12496   0.16512   0.16570
   0.20432   0.23522   0.23914   0.26488   0.40824
 kpt#  11, nband= 21, wtk=  0.01563, kpt=  0.1875  0.1875  0.1875 (reduced coord)
  -1.77865  -0.91911  -0.91906  -0.91906  -0.63135  -0.33985  -0.31366  -0.31366
  -0.09200  -0.09200  -0.07062   0.14065   0.16679   0.16679   0.18685   0.18685
   0.19996   0.23839   0.24573   0.24573   0.37532
 kpt#  12, nband= 21, wtk=  0.04688, kpt=  0.3125  0.1875  0.1875 (reduced coord)
  -1.77863  -0.92007  -0.91904  -0.91901  -0.62959  -0.33926  -0.31222  -0.31091
  -0.09447  -0.09140  -0.07031   0.12789   0.15070   0.16326   0.17298   0.18113
   0.19524   0.23638   0.24017   0.24445   0.37959
 kpt#  13, nband= 21, wtk=  0.04688, kpt=  0.4375  0.1875  0.1875 (reduced coord)
  -1.77861  -0.92077  -0.91900  -0.91897  -0.62833  -0.34070  -0.31119  -0.30678
  -0.09630  -0.08625  -0.07536   0.11595   0.14343   0.15999   0.16139   0.17915
   0.20058   0.23033   0.23769   0.23993   0.38090
 kpt#  14, nband= 21, wtk=  0.04688, kpt=  0.3125  0.3125  0.1875 (reduced coord)
  -1.77860  -0.92003  -0.92000  -0.91898  -0.62809  -0.33381  -0.31179  -0.30976
  -0.09750  -0.09678  -0.07357   0.12280   0.14257   0.14723   0.16991   0.17736
   0.18682   0.23369   0.24315   0.25295   0.39838
 kpt#  15, nband= 21, wtk=  0.09375, kpt=  0.4375  0.3125  0.1875 (reduced coord)
  -1.77858  -0.92070  -0.91997  -0.91894  -0.62700  -0.33161  -0.31010  -0.30842
  -0.10110  -0.09470  -0.08049   0.11417   0.13627   0.14050   0.16413   0.17698
   0.18842   0.23384   0.24121   0.25683   0.40071
 kpt#  16, nband= 21, wtk=  0.04688, kpt=  0.4375  0.4375  0.1875 (reduced coord)
  -1.77857  -0.92066  -0.92066  -0.91891  -0.62605  -0.32431  -0.31039  -0.30923
  -0.10074  -0.10004  -0.08791   0.10908   0.12505   0.13643   0.16847   0.17274
   0.18014   0.24115   0.24459   0.26533   0.41409
 kpt#  17, nband= 21, wtk=  0.01563, kpt=  0.3125  0.3125  0.3125 (reduced coord)
  -1.77858  -0.91998  -0.91995  -0.91995  -0.62672  -0.32652  -0.30935  -0.30935
  -0.10504  -0.10504  -0.08183   0.12240   0.14211   0.14211   0.15693   0.17847
   0.17847   0.24636   0.24636   0.25505   0.41001
 kpt#  18, nband= 21, wtk=  0.04688, kpt=  0.4375  0.3125  0.3125 (reduced coord)
  -1.77856  -0.92065  -0.91993  -0.91991  -0.62575  -0.32240  -0.30783  -0.30755
  -0.11078  -0.10537  -0.09221   0.11354   0.13716   0.14198   0.15254   0.17967
   0.18124   0.24468   0.25305   0.25880   0.41921
 kpt#  19, nband= 21, wtk=  0.04688, kpt=  0.4375  0.4375  0.3125 (reduced coord)
  -1.77854  -0.92061  -0.92061  -0.91988  -0.62485  -0.31496  -0.30722  -0.30653
  -0.11360  -0.11194  -0.10401   0.10830   0.12524   0.14126   0.16066   0.17943
   0.18063   0.25370   0.25565   0.26629   0.42370
 kpt#  20, nband= 21, wtk=  0.01563, kpt=  0.4375  0.4375  0.4375 (reduced coord)
  -1.77853  -0.92058  -0.92058  -0.92058  -0.62399  -0.30767  -0.30483  -0.30483
  -0.12001  -0.12001  -0.11608   0.10355   0.12540   0.12540   0.17620   0.18220
   0.18220   0.26518   0.26518   0.26784   0.43210
 Total charge density [el/Bohr^3]
,     Maximum=    1.3648E+00  at reduced coord.    0.5000    0.5000    0.5926
,Next maximum=    1.3648E+00  at reduced coord.    0.5000    0.5926    0.5000
,     Minimum=    1.7139E-03  at reduced coord.    0.0000    0.0000    0.0000
,Next minimum=    2.0878E-03  at reduced coord.    0.0185    0.0000    0.0000

--------------------------------------------------------------------------------
 Components of total free energy (in Hartree) :

    Kinetic energy  =  6.35598266412054E+01
    Hartree energy  =  2.88502477698150E+01
    XC energy       = -2.13794363604208E+01
    Ewald energy    = -1.05339202560102E+02
    PspCore energy  =  5.06725674588118E+00
    Loc. psp. energy= -1.18702438437332E+02
    NL   psp  energy=  1.61008891971867E+01
    >>>>>>>>> Etotal= -1.31842857003767E+02

 Other information on the energy :
    Total energy(eV)= -3.58762659112860E+03 ; Band energy (Ha)=  -9.3641951775E+00
--------------------------------------------------------------------------------

 Cartesian components of stress tensor (hartree/bohr^3)
  sigma(1 1)=  1.65096151E-07  sigma(3 2)=  0.00000000E+00
  sigma(2 2)=  1.65096151E-07  sigma(3 1)=  0.00000000E+00
  sigma(3 3)=  1.65096151E-07  sigma(2 1)=  0.00000000E+00

-Cartesian components of stress tensor (GPa)         [Pressure= -4.8573E-03 GPa]
- sigma(1 1)=  4.85729565E-03  sigma(3 2)=  0.00000000E+00
- sigma(2 2)=  4.85729565E-03  sigma(3 1)=  0.00000000E+00
- sigma(3 3)=  4.85729565E-03  sigma(2 1)=  0.00000000E+00

== END DATASET(S) ==============================================================
================================================================================
  
 -outvars: echo values of variables after computation  --------
     acell    7.4434230817E+00  7.4434230817E+00  7.4434230817E+00 Bohr
       amu    1.37327000E+02  4.78800000E+01  1.59994000E+01
    diemac    1.20000000E+01
   dilatmx    1.20000000E+00
      ecut    4.30000000E+01 Hartree
    ecutsm    3.00000000E+00 Hartree
    etotal   -1.3184285700E+02
     fcart   -0.0000000000E+00 -0.0000000000E+00 -0.0000000000E+00
             -0.0000000000E+00 -0.0000000000E+00 -0.0000000000E+00
             -0.0000000000E+00 -0.0000000000E+00 -0.0000000000E+00
             -0.0000000000E+00 -0.0000000000E+00 -0.0000000000E+00
             -0.0000000000E+00 -0.0000000000E+00 -0.0000000000E+00
    ionmov         2
       ixc         3
       kpt    6.25000000E-02  6.25000000E-02  6.25000000E-02
              1.87500000E-01  6.25000000E-02  6.25000000E-02
              3.12500000E-01  6.25000000E-02  6.25000000E-02
              4.37500000E-01  6.25000000E-02  6.25000000E-02
              1.87500000E-01  1.87500000E-01  6.25000000E-02
              3.12500000E-01  1.87500000E-01  6.25000000E-02
              4.37500000E-01  1.87500000E-01  6.25000000E-02
              3.12500000E-01  3.12500000E-01  6.25000000E-02
              4.37500000E-01  3.12500000E-01  6.25000000E-02
              4.37500000E-01  4.37500000E-01  6.25000000E-02
              1.87500000E-01  1.87500000E-01  1.87500000E-01
              3.12500000E-01  1.87500000E-01  1.87500000E-01
              4.37500000E-01  1.87500000E-01  1.87500000E-01
              3.12500000E-01  3.12500000E-01  1.87500000E-01
              4.37500000E-01  3.12500000E-01  1.87500000E-01
              4.37500000E-01  4.37500000E-01  1.87500000E-01
              3.12500000E-01  3.12500000E-01  3.12500000E-01
              4.37500000E-01  3.12500000E-01  3.12500000E-01
              4.37500000E-01  4.37500000E-01  3.12500000E-01
              4.37500000E-01  4.37500000E-01  4.37500000E-01
   kptrlen    5.95473847E+01
    kptopt         1
  kptrlatt    8  0  0   0  8  0   0  0  8
P    mkmem         5
     natom         5
     nband        21
     ngfft        54      54      54
      nkpt        20
     nstep        45
      nsym        48
     ntime        15
    ntypat         3
       occ    2.000000  2.000000  2.000000  2.000000  2.000000  2.000000
              2.000000  2.000000  2.000000  2.000000  2.000000  2.000000
              2.000000  2.000000  2.000000  2.000000  2.000000  2.000000
              2.000000  2.000000  0.000000
   optcell         2
    prtden         0
     prtwf         0
    shiftk    5.00000000E-01  5.00000000E-01  5.00000000E-01
   spgroup       221
    strten    1.6509615139E-07  1.6509615140E-07  1.6509615139E-07
              0.0000000000E+00  0.0000000000E+00  0.0000000000E+00
    symrel    1  0  0   0  1  0   0  0  1      -1  0  0   0 -1  0   0  0 -1
             -1  0  0   0  1  0   0  0 -1       1  0  0   0 -1  0   0  0  1
             -1  0  0   0 -1  0   0  0  1       1  0  0   0  1  0   0  0 -1
              1  0  0   0 -1  0   0  0 -1      -1  0  0   0  1  0   0  0  1
              0  1  0   1  0  0   0  0  1       0 -1  0  -1  0  0   0  0 -1
              0 -1  0   1  0  0   0  0 -1       0  1  0  -1  0  0   0  0  1
              0 -1  0  -1  0  0   0  0  1       0  1  0   1  0  0   0  0 -1
              0  1  0  -1  0  0   0  0 -1       0 -1  0   1  0  0   0  0  1
              0  0  1   1  0  0   0  1  0       0  0 -1  -1  0  0   0 -1  0
              0  0 -1   1  0  0   0 -1  0       0  0  1  -1  0  0   0  1  0
              0  0 -1  -1  0  0   0  1  0       0  0  1   1  0  0   0 -1  0
              0  0  1  -1  0  0   0 -1  0       0  0 -1   1  0  0   0  1  0
              1  0  0   0  0  1   0  1  0      -1  0  0   0  0 -1   0 -1  0
             -1  0  0   0  0  1   0 -1  0       1  0  0   0  0 -1   0  1  0
             -1  0  0   0  0 -1   0  1  0       1  0  0   0  0  1   0 -1  0
              1  0  0   0  0 -1   0 -1  0      -1  0  0   0  0  1   0  1  0
              0  1  0   0  0  1   1  0  0       0 -1  0   0  0 -1  -1  0  0
              0 -1  0   0  0  1  -1  0  0       0  1  0   0  0 -1   1  0  0
              0 -1  0   0  0 -1   1  0  0       0  1  0   0  0  1  -1  0  0
              0  1  0   0  0 -1  -1  0  0       0 -1  0   0  0  1   1  0  0
              0  0  1   0  1  0   1  0  0       0  0 -1   0 -1  0  -1  0  0
              0  0 -1   0  1  0  -1  0  0       0  0  1   0 -1  0   1  0  0
              0  0 -1   0 -1  0   1  0  0       0  0  1   0  1  0  -1  0  0
              0  0  1   0 -1  0  -1  0  0       0  0 -1   0  1  0   1  0  0
    toldfe    1.00000000E-10 Hartree
     typat    1  2  3  3  3
       wtk      0.01563    0.04688    0.04688    0.04688    0.04688    0.09375
                0.09375    0.04688    0.09375    0.04688    0.01563    0.04688
                0.04688    0.04688    0.09375    0.04688    0.01563    0.04688
                0.04688    0.01563
    xangst    0.0000000000E+00  0.0000000000E+00  0.0000000000E+00
              1.9694449244E+00  1.9694449244E+00  1.9694449244E+00
              0.0000000000E+00  1.9694449244E+00  1.9694449244E+00
              1.9694449244E+00  0.0000000000E+00  1.9694449244E+00
              1.9694449244E+00  1.9694449244E+00  0.0000000000E+00
     xcart    0.0000000000E+00  0.0000000000E+00  0.0000000000E+00
              3.7217115409E+00  3.7217115409E+00  3.7217115409E+00
              0.0000000000E+00  3.7217115409E+00  3.7217115409E+00
              3.7217115409E+00  0.0000000000E+00  3.7217115409E+00
              3.7217115409E+00  3.7217115409E+00  0.0000000000E+00
      xred    0.0000000000E+00  0.0000000000E+00  0.0000000000E+00
              5.0000000000E-01  5.0000000000E-01  5.0000000000E-01
              0.0000000000E+00  5.0000000000E-01  5.0000000000E-01
              5.0000000000E-01  0.0000000000E+00  5.0000000000E-01
              5.0000000000E-01  5.0000000000E-01  0.0000000000E+00
     znucl     56.00000   22.00000    8.00000

================================================================================


- Timing analysis has been suppressed with timopt=0


-
- Proc.   0 individual time (sec): cpu=        564.6  wall=        564.6

================================================================================

 Calculation completed.
.Delivered    0 WARNINGs and   1 COMMENTs to log file.
+Overall time at end (sec) : cpu=       2258.5  wall=       2258.5
