
.Version 5.6.4  of ABINIT 
.(MPI version, prepared for a x86_64_linux_gcc4.3 computer) 

.Copyright (C) 1998-2008 ABINIT group . 
 ABINIT comes with ABSOLUTELY NO WARRANTY.
 It is free software, and you are welcome to redistribute it
 under certain conditions (GNU General Public License,
 see ~abinit/COPYING or http://www.gnu.org/copyleft/gpl.txt).

 ABINIT is a project of the Universite Catholique de Louvain,
 Corning Inc. and other collaborators, see ~abinit/doc/developers/contributors.txt .
 Please read ~abinit/doc/users/acknowledgments.html for suggested
 acknowledgments of the ABINIT effort.
 For more information, see http://www.abinit.org .

.Starting date : Fri 30 Jan 2009.
  
- input  file    -> perovskite-tetragonal.in
- output file    -> perovskite-tetragonal.out
- root for input  files -> perovskite-tetragonal_i
- root for output files -> perovskite-tetragonal_o


 Symmetries : space group P4 m m (# 99); Bravais tP (primitive tetrag.)
================================================================================
 Values of the parameters that define the memory need of the present run
   intxc =         0  ionmov =         2    iscf =         7 xclevel =         1
  lmnmax =         4   lnmax =         4   mband =        21  mffmem =         1
P  mgfft =        50   mkmem =        10 mpssoang=         3     mpw =      7430
  mqgrid =      3001   natom =         5    nfft =    125000    nkpt =        40
  nloalg =         4  nspden =         1 nspinor =         1  nsppol =         1
    nsym =         8  n1xccc =         0  ntypat =         3  occopt =         1
================================================================================
P This job should need less than                      62.835 Mbytes of memory.
  Rough estimation (10% accuracy) of disk space for files :
  WF disk file :     95.235 Mbytes ; DEN or POT disk file :      0.956 Mbytes.
================================================================================

 -outvars: echo values of preprocessed input variables --------
     acell    7.4386120087E+00  7.4386120087E+00  7.4662411534E+00 Bohr
       amu    1.37327000E+02  4.78800000E+01  1.59994000E+01
    diemac    1.20000000E+01
   dilatmx    1.10000000E+00
      ecut    4.30000000E+01 Hartree
    ecutsm    3.00000000E+00 Hartree
    ionmov         2
       ixc         3
       kpt    6.25000000E-02  6.25000000E-02  6.25000000E-02
              1.87500000E-01  6.25000000E-02  6.25000000E-02
              3.12500000E-01  6.25000000E-02  6.25000000E-02
              4.37500000E-01  6.25000000E-02  6.25000000E-02
              1.87500000E-01  1.87500000E-01  6.25000000E-02
              3.12500000E-01  1.87500000E-01  6.25000000E-02
              4.37500000E-01  1.87500000E-01  6.25000000E-02
              3.12500000E-01  3.12500000E-01  6.25000000E-02
              4.37500000E-01  3.12500000E-01  6.25000000E-02
              4.37500000E-01  4.37500000E-01  6.25000000E-02
              6.25000000E-02  6.25000000E-02  1.87500000E-01
              1.87500000E-01  6.25000000E-02  1.87500000E-01
              3.12500000E-01  6.25000000E-02  1.87500000E-01
              4.37500000E-01  6.25000000E-02  1.87500000E-01
              1.87500000E-01  1.87500000E-01  1.87500000E-01
              3.12500000E-01  1.87500000E-01  1.87500000E-01
              4.37500000E-01  1.87500000E-01  1.87500000E-01
              3.12500000E-01  3.12500000E-01  1.87500000E-01
              4.37500000E-01  3.12500000E-01  1.87500000E-01
              4.37500000E-01  4.37500000E-01  1.87500000E-01
              6.25000000E-02  6.25000000E-02  3.12500000E-01
              1.87500000E-01  6.25000000E-02  3.12500000E-01
              3.12500000E-01  6.25000000E-02  3.12500000E-01
              4.37500000E-01  6.25000000E-02  3.12500000E-01
              1.87500000E-01  1.87500000E-01  3.12500000E-01
              3.12500000E-01  1.87500000E-01  3.12500000E-01
              4.37500000E-01  1.87500000E-01  3.12500000E-01
              3.12500000E-01  3.12500000E-01  3.12500000E-01
              4.37500000E-01  3.12500000E-01  3.12500000E-01
              4.37500000E-01  4.37500000E-01  3.12500000E-01
              6.25000000E-02  6.25000000E-02  4.37500000E-01
              1.87500000E-01  6.25000000E-02  4.37500000E-01
              3.12500000E-01  6.25000000E-02  4.37500000E-01
              4.37500000E-01  6.25000000E-02  4.37500000E-01
              1.87500000E-01  1.87500000E-01  4.37500000E-01
              3.12500000E-01  1.87500000E-01  4.37500000E-01
              4.37500000E-01  1.87500000E-01  4.37500000E-01
              3.12500000E-01  3.12500000E-01  4.37500000E-01
              4.37500000E-01  3.12500000E-01  4.37500000E-01
              4.37500000E-01  4.37500000E-01  4.37500000E-01
   kptrlen    5.95088961E+01
    kptopt         1
  kptrlatt    8  0  0   0  8  0   0  0  8
P    mkmem        10
     natom         5
     nband        21
     ngfft        50      50      50
      nkpt        40
     nstep        45
      nsym         8
     ntime        20
    ntypat         3
       occ    2.000000  2.000000  2.000000  2.000000  2.000000  2.000000
              2.000000  2.000000  2.000000  2.000000  2.000000  2.000000
              2.000000  2.000000  2.000000  2.000000  2.000000  2.000000
              2.000000  2.000000  0.000000
   optcell         2
    prtden         0
     prtwf         0
    shiftk    5.00000000E-01  5.00000000E-01  5.00000000E-01
   spgroup        99
    symrel    1  0  0   0  1  0   0  0  1       1  0  0   0 -1  0   0  0  1
             -1  0  0   0 -1  0   0  0  1      -1  0  0   0  1  0   0  0  1
              0  1  0   1  0  0   0  0  1       0  1  0  -1  0  0   0  0  1
              0 -1  0  -1  0  0   0  0  1       0 -1  0   1  0  0   0  0  1
    toldff    5.00000000E-07
     typat    1  2  3  3  3
       wtk      0.01563    0.03125    0.03125    0.03125    0.01563    0.03125
                0.03125    0.01563    0.03125    0.01563    0.01563    0.03125
                0.03125    0.03125    0.01563    0.03125    0.03125    0.01563
                0.03125    0.01563    0.01563    0.03125    0.03125    0.03125
                0.01563    0.03125    0.03125    0.01563    0.03125    0.01563
                0.01563    0.03125    0.03125    0.03125    0.01563    0.03125
                0.03125    0.01563    0.03125    0.01563
    xangst    0.0000000000E+00  0.0000000000E+00  1.5268659347E-02
              1.9681719693E+00  1.9681719693E+00  2.0204053997E+00
              0.0000000000E+00  1.9681719693E+00  1.9594420553E+00
              1.9681719693E+00  0.0000000000E+00  1.9594420553E+00
              1.9681719693E+00  1.9681719693E+00 -2.8111191385E-02
     xcart    0.0000000000E+00  0.0000000000E+00  2.8853584583E-02
              3.7193060043E+00  3.7193060043E+00  3.8180128828E+00
              0.0000000000E+00  3.7193060043E+00  3.7028088578E+00
              3.7193060043E+00  0.0000000000E+00  3.7028088578E+00
              3.7193060043E+00  3.7193060043E+00 -5.3122452986E-02
      xred    0.0000000000E+00  0.0000000000E+00  3.8645395976E-03
              5.0000000000E-01  5.0000000000E-01  5.1137015325E-01
              0.0000000000E+00  5.0000000000E-01  4.9594016343E-01
              5.0000000000E-01  0.0000000000E+00  4.9594016343E-01
              5.0000000000E-01  5.0000000000E-01 -7.1150197127E-03
     znucl     56.00000   22.00000    8.00000

================================================================================

 chkinp: Checking input parameters for consistency.

================================================================================
== DATASET  1 ==================================================================

 Real(R)+Recip(G) space primitive vectors, cartesian coordinates (Bohr,Bohr^-1):
 R(1)=  7.4386120  0.0000000  0.0000000  G(1)=  0.1344337  0.0000000  0.0000000
 R(2)=  0.0000000  7.4386120  0.0000000  G(2)=  0.0000000  0.1344337  0.0000000
 R(3)=  0.0000000  0.0000000  7.4662412  G(3)=  0.0000000  0.0000000  0.1339362
 Unit cell volume ucvol=  4.1312914E+02 bohr^3
 Angles (23,13,12)=  9.00000000E+01  9.00000000E+01  9.00000000E+01 degrees

 getcut: wavevector=  0.0000  0.0000  0.0000  ngfft=  50  50  50
         ecut(hartree)=     52.030   => boxcut(ratio)=   2.06241

--- Pseudopotential description ------------------------------------------------
- pspini: atom type   1  psp file is 56ba.psp.mod
- pspatm: opening atomic psp file    56ba.psp.mod
 Barium.ion 5s2.5p6.6s0.5d0 rcs=rcp=rcd=1.7 ecut=22/28
  56.00000  10.00000    940000                znucl, zion, pspdat
    4    3    2    2      2001   0.00000      pspcod,pspxc,lmax,lloc,mmax,r2well
    0   0.000   0.000    2   1.6965489        l,e99.0,e99.9,nproj,rcpsp
   0.00000000   0.00000000   0.00000000   0.00000000     rms, ekb1, ekb2, epsatm
    1   0.000   0.000    2   1.6965489        l,e99.0,e99.9,nproj,rcpsp
   0.00000000   0.00000000   0.00000000   0.00000000     rms, ekb1, ekb2, epsatm
    2   0.000   0.000    0   1.6965489        l,e99.0,e99.9,nproj,rcpsp
   0.00000000   0.00000000   0.00000000   0.00000000     rms, ekb1, ekb2, epsatm
    0.00000000000000    0.00000000000000    0.00000000000000   rchrg,fchrg,qchrg
 pspatm: epsatm=   43.25917021
         --- l  ekb(1:nproj) -->
             0   -9.646692   27.266828
             1   -6.938476   21.148499
 pspatm: atomic psp has been read  and splines computed

- pspini: atom type   2  psp file is 22ti.psp.mod
- pspatm: opening atomic psp file    22ti.psp.mod
 Titane.ion 3s2.3p6.4s0.3d2 rcd=1.65, rcs=rc0=1.25, ecut 32/54
  22.00000  12.00000    940000                znucl, zion, pspdat
    4    3    2    2      2001   0.00000      pspcod,pspxc,lmax,lloc,mmax,r2well
    0   0.000   0.000    2   1.2533577        l,e99.0,e99.9,nproj,rcpsp
   0.00000000   0.00000000   0.00000000   0.00000000     rms, ekb1, ekb2, epsatm
    1   0.000   0.000    2   1.2533577        l,e99.0,e99.9,nproj,rcpsp
   0.00000000   0.00000000   0.00000000   0.00000000     rms, ekb1, ekb2, epsatm
    2   0.000   0.000    0   1.6491622        l,e99.0,e99.9,nproj,rcpsp
   0.00000000   0.00000000   0.00000000   0.00000000     rms, ekb1, ekb2, epsatm
    0.00000000000000    0.00000000000000    0.00000000000000   rchrg,fchrg,qchrg
 pspatm: epsatm=    4.67708954
         --- l  ekb(1:nproj) -->
             0    9.517316   -2.344682
             1    5.011406   -0.741179
 pspatm: atomic psp has been read  and splines computed

- pspini: atom type   3  psp file is 8o.phoney.mod
- pspatm: opening atomic psp file    8o.phoney.mod
 Compromise psp for oxygen with rc=1.5 ec=25 double reference
   8.00000   6.00000    980710                znucl, zion, pspdat
    5    3    1    1       600   0.00000      pspcod,pspxc,lmax,lloc,mmax,r2well
    1.000000E-06    3.075239E-02              r1 and al (Hamman grid)
    0   0.000   0.000    2   1.4915765        l,e99.0,e99.9,nproj,rcpsp
   0.00000000   0.00000000   0.00000000   0.00000000     rms, ekb1, ekb2, epsatm
    1   0.000   0.000    0   1.4915765        l,e99.0,e99.9,nproj,rcpsp
   0.00000000   0.00000000   0.00000000   0.00000000     rms, ekb1, ekb2, epsatm
    0.00000000000000    0.00000000000000    0.00000000000000   rchrg,fchrg,qchrg
 pspatm: epsatm=    1.43569736
         --- l  ekb(1:nproj) -->
             0    5.763361   -1.798421
 pspatm: atomic psp has been read  and splines computed

   2.08973407E+03                                ecore*ucvol(ha*bohr**3)
--------------------------------------------------------------------------------

P newkpt: treating     21 bands with npw=    7350 for ikpt=   1 by node    0
P newkpt: treating     21 bands with npw=    7384 for ikpt=   2 by node    0
P newkpt: treating     21 bands with npw=    7392 for ikpt=   3 by node    0
P newkpt: treating     21 bands with npw=    7409 for ikpt=   4 by node    0
P newkpt: treating     21 bands with npw=    7395 for ikpt=   5 by node    0
P newkpt: treating     21 bands with npw=    7406 for ikpt=   6 by node    0
P newkpt: treating     21 bands with npw=    7406 for ikpt=   7 by node    0
P newkpt: treating     21 bands with npw=    7417 for ikpt=   8 by node    0
P newkpt: treating     21 bands with npw=    7420 for ikpt=   9 by node    0
P newkpt: treating     21 bands with npw=    7399 for ikpt=  10 by node    0
P newkpt: treating     21 bands with npw=    7370 for ikpt=  11 by node    1
P newkpt: treating     21 bands with npw=    7384 for ikpt=  12 by node    1
P newkpt: treating     21 bands with npw=    7402 for ikpt=  13 by node    1
P newkpt: treating     21 bands with npw=    7411 for ikpt=  14 by node    1
P newkpt: treating     21 bands with npw=    7413 for ikpt=  15 by node    1
P newkpt: treating     21 bands with npw=    7410 for ikpt=  16 by node    1
P newkpt: treating     21 bands with npw=    7411 for ikpt=  17 by node    1
P newkpt: treating     21 bands with npw=    7408 for ikpt=  18 by node    1
P newkpt: treating     21 bands with npw=    7416 for ikpt=  19 by node    1
P newkpt: treating     21 bands with npw=    7408 for ikpt=  20 by node    1
P newkpt: treating     21 bands with npw=    7401 for ikpt=  21 by node    2
P newkpt: treating     21 bands with npw=    7408 for ikpt=  22 by node    2
P newkpt: treating     21 bands with npw=    7409 for ikpt=  23 by node    2
P newkpt: treating     21 bands with npw=    7418 for ikpt=  24 by node    2
P newkpt: treating     21 bands with npw=    7408 for ikpt=  25 by node    2
P newkpt: treating     21 bands with npw=    7406 for ikpt=  26 by node    2
P newkpt: treating     21 bands with npw=    7408 for ikpt=  27 by node    2
P newkpt: treating     21 bands with npw=    7397 for ikpt=  28 by node    2
P newkpt: treating     21 bands with npw=    7407 for ikpt=  29 by node    2
P newkpt: treating     21 bands with npw=    7411 for ikpt=  30 by node    2
P newkpt: treating     21 bands with npw=    7408 for ikpt=  31 by node    3
P newkpt: treating     21 bands with npw=    7408 for ikpt=  32 by node    3
P newkpt: treating     21 bands with npw=    7417 for ikpt=  33 by node    3
P newkpt: treating     21 bands with npw=    7404 for ikpt=  34 by node    3
P newkpt: treating     21 bands with npw=    7411 for ikpt=  35 by node    3
P newkpt: treating     21 bands with npw=    7412 for ikpt=  36 by node    3
P newkpt: treating     21 bands with npw=    7403 for ikpt=  37 by node    3
P newkpt: treating     21 bands with npw=    7398 for ikpt=  38 by node    3
P newkpt: treating     21 bands with npw=    7416 for ikpt=  39 by node    3
P newkpt: treating     21 bands with npw=    7430 for ikpt=  40 by node    3

 setup2: Arith. and geom. avg. npw (full set) are    7405.594    7405.584

================================================================================

 BROYDEN STEP NUMBER   0  ------------------------------------------------------

     iter   Etot(hartree)      deltaE(h)  residm     vres2    diffor    maxfor
 ETOT  1  -130.93539546832    -1.309E+02 5.221E-01 1.517E+03 1.040E-01 1.040E-01
 ETOT  2  -131.80186832532    -8.665E-01 1.751E-01 3.494E+02 1.432E-01 3.918E-02
 ETOT  3  -131.83560096315    -3.373E-02 4.678E-02 1.491E+01 5.193E-02 1.275E-02
 ETOT  4  -131.83775604851    -2.155E-03 3.402E-02 2.054E+01 2.446E-02 1.171E-02
 ETOT  5  -131.84153486343    -3.779E-03 8.140E-03 3.385E+00 1.217E-02 2.428E-03
 ETOT  6  -131.84247626633    -9.414E-04 7.986E-03 4.514E-01 2.680E-03 4.465E-04
 ETOT  7  -131.84270801735    -2.318E-04 3.833E-03 2.694E-01 1.552E-03 1.543E-03
 ETOT  8  -131.84280255413    -9.454E-05 4.482E-03 9.866E-02 1.721E-03 4.587E-04
 ETOT  9  -131.84284925236    -4.670E-05 2.714E-03 4.250E-03 3.828E-04 1.668E-04
 ETOT 10  -131.84286130175    -1.205E-05 3.068E-03 5.458E-03 2.192E-04 1.432E-04
 ETOT 11  -131.84286705038    -5.749E-06 2.081E-03 2.403E-03 2.260E-04 1.736E-04
 ETOT 12  -131.84286976998    -2.720E-06 2.490E-03 2.622E-05 9.990E-05 1.433E-04
 ETOT 13  -131.84287064854    -8.786E-07 1.275E-03 5.453E-04 7.442E-05 1.594E-04
 ETOT 14  -131.84287120238    -5.538E-07 1.110E-03 2.465E-05 5.534E-05 1.510E-04
 ETOT 15  -131.84287137214    -1.698E-07 1.405E-03 2.000E-04 4.809E-05 1.683E-04
 ETOT 16  -131.84287150829    -1.361E-07 8.501E-04 7.305E-06 3.876E-05 1.588E-04
 ETOT 17  -131.84287155195    -4.366E-08 7.882E-04 2.656E-05 1.464E-05 1.679E-04
 ETOT 18  -131.84287158068    -2.873E-08 7.403E-04 4.673E-06 1.366E-05 1.648E-04
 ETOT 19  -131.84287159247    -1.180E-08 6.776E-04 6.296E-06 5.580E-06 1.649E-04
 ETOT 20  -131.84287159398    -1.511E-09 6.111E-04 2.985E-05 8.509E-06 1.590E-04
 ETOT 21  -131.84287159826    -4.276E-09 5.616E-04 2.561E-05 3.413E-06 1.611E-04
 ETOT 22  -131.84287160239    -4.130E-09 4.999E-04 8.525E-06 1.896E-06 1.612E-04
 ETOT 23  -131.84287160397    -1.581E-09 4.474E-04 3.707E-06 2.756E-06 1.622E-04
 ETOT 24  -131.84287160453    -5.582E-10 5.065E-04 2.531E-06 7.798E-07 1.621E-04
 ETOT 25  -131.84287160481    -2.767E-10 4.077E-04 2.072E-06 8.524E-07 1.625E-04
 ETOT 26  -131.84287160507    -2.615E-10 4.909E-04 1.234E-06 1.218E-06 1.628E-04
 ETOT 27  -131.84287160521    -1.417E-10 3.347E-04 1.727E-07 2.134E-06 1.623E-04
 ETOT 28  -131.84287160526    -4.673E-11 3.326E-04 1.888E-07 1.840E-06 1.638E-04
 ETOT 29  -131.84287160526    -4.292E-12 1.211E-03 3.189E-07 3.292E-06 1.611E-04
 ETOT 30  -131.84287160532    -5.741E-11 3.076E-04 9.155E-09 1.464E-06 1.624E-04
 ETOT 31  -131.84287160532    -2.558E-12 5.671E-04 2.439E-09 1.679E-07 1.622E-04
 ETOT 32  -131.84287160533    -7.134E-12 3.030E-04 3.181E-10 1.952E-07 1.623E-04

 At SCF step   32, forces are converged :
  for the second time, max diff in force=  1.952E-07 < toldff=  5.000E-07

 Cartesian components of stress tensor (hartree/bohr^3)
  sigma(1 1)= -1.45122486E-09  sigma(3 2)=  0.00000000E+00
  sigma(2 2)= -1.45122486E-09  sigma(3 1)=  0.00000000E+00
  sigma(3 3)= -8.86452380E-10  sigma(2 1)=  0.00000000E+00

 Unit cell characteristics :
  acell=  7.4386120087E+00  7.4386120087E+00  7.4662411534E+00
  rprim=  1.0000000000E+00  0.0000000000E+00  0.0000000000E+00
          0.0000000000E+00  1.0000000000E+00  0.0000000000E+00
          0.0000000000E+00  0.0000000000E+00  1.0000000000E+00
  ucvol=  4.1312913810E+02 Bohr^3
  lengths=  7.4386120087E+00  7.4386120087E+00  7.4662411534E+00 Bohr
  angles (23,13,12)=  90.00000000  90.00000000  90.00000000 degrees
 Cartesian coordinates (bohr)
  0.00000000000000E+00  0.00000000000000E+00  2.88535845825450E-02
  3.71930600435000E+00  3.71930600435000E+00  3.81801288281562E+00
  0.00000000000000E+00  3.71930600435000E+00  3.70280885782499E+00
  3.71930600435000E+00  0.00000000000000E+00  3.70280885782499E+00
  3.71930600435000E+00  3.71930600435000E+00 -5.31224529862130E-02
 Cartesian forces (hart/bohr); max,rms= 1.62253E-04 5.55975E-05 (free atoms)
 -0.00000000000000E+00 -0.00000000000000E+00 -5.50524041554074E-05
 -0.00000000000000E+00 -0.00000000000000E+00 -1.62252838372869E-04
 -0.00000000000000E+00 -0.00000000000000E+00  5.78919543319754E-05
 -0.00000000000000E+00 -0.00000000000000E+00  5.78919543319754E-05
 -0.00000000000000E+00 -0.00000000000000E+00  1.01521333864326E-04

 At the end of Broyden step  0, total energy= -1.31842871605327E+02 Ha.


 BROYDEN STEP NUMBER   1  ------------------------------------------------------

     iter   Etot(hartree)      deltaE(h)  residm     vres2    diffor    maxfor
 ETOT  1  -131.84287136788    -1.318E+02 2.961E-04 2.038E-03 2.908E-03 3.070E-03
 ETOT  2  -131.84287160100    -2.331E-07 2.855E-04 2.504E-04 4.032E-03 9.617E-04
 ETOT  3  -131.84287164319    -4.218E-08 3.202E-04 3.470E-05 1.322E-03 3.604E-04
 ETOT  4  -131.84287165027    -7.085E-09 2.726E-04 2.640E-06 1.568E-04 2.036E-04
 ETOT  5  -131.84287165094    -6.683E-10 3.076E-04 7.229E-08 6.028E-05 1.569E-04
 ETOT  6  -131.84287165097    -2.711E-11 2.578E-04 1.515E-08 1.225E-05 1.557E-04
 ETOT  7  -131.84287165098    -1.151E-11 2.925E-04 5.261E-09 1.193E-06 1.563E-04
 ETOT  8  -131.84287165097     2.927E-12 2.416E-04 3.989E-10 6.190E-07 1.566E-04
 ETOT  9  -131.84287165098    -9.038E-12 2.756E-04 1.707E-10 1.534E-07 1.566E-04
 ETOT 10  -131.84287165099    -2.927E-12 2.244E-04 1.608E-11 1.526E-07 1.566E-04

 At SCF step   10, forces are converged :
  for the second time, max diff in force=  1.526E-07 < toldff=  5.000E-07

 Cartesian components of stress tensor (hartree/bohr^3)
  sigma(1 1)=  8.29662630E-09  sigma(3 2)=  0.00000000E+00
  sigma(2 2)=  8.29662629E-09  sigma(3 1)=  0.00000000E+00
  sigma(3 3)=  1.24322178E-07  sigma(2 1)=  0.00000000E+00

 Unit cell characteristics :
  acell=  7.4386123326E+00  7.4386123326E+00  7.4662413520E+00
  rprim=  1.0000000000E+00  0.0000000000E+00  0.0000000000E+00
          0.0000000000E+00  1.0000000000E+00  0.0000000000E+00
          0.0000000000E+00  0.0000000000E+00  1.0000000000E+00
  ucvol=  4.1312918505E+02 Bohr^3
  lengths=  7.4386123326E+00  7.4386123326E+00  7.4662413520E+00 Bohr
  angles (23,13,12)=  90.00000000  90.00000000  90.00000000 degrees
 Cartesian coordinates (bohr)
  0.00000000000000E+00  0.00000000000000E+00  2.87985329442454E-02
  3.71930616627648E+00  3.71930616627648E+00  3.81785073150753E+00
  0.00000000000000E+00  3.71930616627648E+00  3.70286684825177E+00
  3.71930616627648E+00  0.00000000000000E+00  3.70286684825177E+00
  3.71930616627648E+00  3.71930616627648E+00 -5.30209330623646E-02
 Cartesian forces (hart/bohr); max,rms= 1.56575E-04 5.38940E-05 (free atoms)
 -0.00000000000000E+00 -0.00000000000000E+00 -5.51984689680237E-05
 -0.00000000000000E+00 -0.00000000000000E+00 -1.56575048477388E-04
 -0.00000000000000E+00 -0.00000000000000E+00  5.73220030884236E-05
 -0.00000000000000E+00 -0.00000000000000E+00  5.73220030884236E-05
 -0.00000000000000E+00 -0.00000000000000E+00  9.71295112685648E-05

 At the end of Broyden step  1, total energy= -1.31842871650986E+02 Ha.


 BROYDEN STEP NUMBER   2  ------------------------------------------------------

     iter   Etot(hartree)      deltaE(h)  residm     vres2    diffor    maxfor
 ETOT  1  -131.84250758317    -1.318E+02 6.218E-01 2.616E+00 1.036E-01 1.037E-01
 ETOT  2  -131.84281021846    -3.026E-04 9.298E-03 3.081E-01 1.434E-01 3.964E-02
 ETOT  3  -131.84286392946    -5.371E-05 1.391E-04 3.787E-02 4.683E-02 7.189E-03
 ETOT  4  -131.84287167899    -7.750E-06 3.185E-04 3.503E-03 5.641E-03 1.548E-03
 ETOT  5  -131.84287256121    -8.822E-07 1.241E-04 1.009E-04 2.002E-03 6.090E-04
 ETOT  6  -131.84287259397    -3.276E-08 2.774E-04 1.111E-05 4.888E-04 1.203E-04
 ETOT  7  -131.84287260080    -6.831E-09 1.081E-04 5.449E-06 4.457E-05 7.568E-05
 ETOT  8  -131.84287260389    -3.085E-09 2.407E-04 5.535E-07 2.881E-05 4.687E-05
 ETOT  9  -131.84287260459    -6.982E-10 9.382E-05 1.092E-07 2.065E-06 4.894E-05
 ETOT 10  -131.84287260480    -2.096E-10 2.075E-04 7.039E-08 2.697E-06 4.952E-05
 ETOT 11  -131.84287260489    -9.345E-11 8.094E-05 9.778E-09 1.761E-06 5.128E-05
 ETOT 12  -131.84287260493    -4.050E-11 1.780E-04 5.516E-09 1.490E-06 5.030E-05
 ETOT 13  -131.84287260495    -2.206E-11 6.946E-05 3.488E-09 4.201E-07 5.072E-05
 ETOT 14  -131.84287260496    -6.537E-12 1.519E-04 3.929E-11 6.017E-07 5.056E-05
 ETOT 15  -131.84287260496    -4.320E-12 7.364E-05 9.570E-10 1.411E-07 5.071E-05
 ETOT 16  -131.84287260497    -2.530E-12 1.292E-04 9.677E-11 4.141E-07 5.051E-05

 At SCF step   16, forces are converged :
  for the second time, max diff in force=  4.141E-07 < toldff=  5.000E-07

 Cartesian components of stress tensor (hartree/bohr^3)
  sigma(1 1)= -3.66816510E-07  sigma(3 2)=  0.00000000E+00
  sigma(2 2)= -3.66816510E-07  sigma(3 1)=  0.00000000E+00
  sigma(3 3)=  2.85877530E-06  sigma(2 1)=  0.00000000E+00

 Unit cell characteristics :
  acell=  7.4385536768E+00  7.4385536768E+00  7.4653373405E+00
  rprim=  1.0000000000E+00  0.0000000000E+00  0.0000000000E+00
          0.0000000000E+00  1.0000000000E+00  0.0000000000E+00
          0.0000000000E+00  0.0000000000E+00  1.0000000000E+00
  ucvol=  4.1307264895E+02 Bohr^3
  lengths=  7.4385536768E+00  7.4385536768E+00  7.4653373405E+00 Bohr
  angles (23,13,12)=  90.00000000  90.00000000  90.00000000 degrees
 Cartesian coordinates (bohr)
  0.00000000000000E+00  0.00000000000000E+00  2.67445063479703E-02
  3.71927683842095E+00  3.71927683842095E+00  3.81154350545558E+00
  0.00000000000000E+00  3.71927683842095E+00  3.70455129964207E+00
  3.71927683842095E+00  0.00000000000000E+00  3.70455129964207E+00
  3.71927683842095E+00  3.71927683842095E+00 -4.93846003566074E-02
 Cartesian forces (hart/bohr); max,rms= 5.05069E-05 1.78844E-05 (free atoms)
 -0.00000000000000E+00 -0.00000000000000E+00 -5.05068664787947E-05
 -0.00000000000000E+00 -0.00000000000000E+00  7.65466641249652E-07
 -0.00000000000000E+00 -0.00000000000000E+00  3.19727347825891E-05
 -0.00000000000000E+00 -0.00000000000000E+00  3.19727347825891E-05
 -0.00000000000000E+00 -0.00000000000000E+00 -1.42040697276332E-05

 At the end of Broyden step  2, total energy= -1.31842872604966E+02 Ha.


 BROYDEN STEP NUMBER   3  ------------------------------------------------------

     iter   Etot(hartree)      deltaE(h)  residm     vres2    diffor    maxfor
 ETOT  1  -131.84283259132    -1.318E+02 2.148E-02 2.872E-01 3.355E-02 3.355E-02
 ETOT  2  -131.84286635662    -3.377E-05 5.370E-03 3.153E-02 4.625E-02 1.270E-02
 ETOT  3  -131.84287207868    -5.722E-06 4.719E-05 2.992E-03 1.500E-02 2.295E-03
 ETOT  4  -131.84287267564    -5.970E-07 1.236E-04 4.430E-04 1.957E-03 3.450E-04
 ETOT  5  -131.84287277975    -1.041E-07 3.959E-05 1.411E-05 5.052E-04 2.420E-04
 ETOT  6  -131.84287278392    -4.171E-09 1.111E-04 1.300E-06 1.752E-04 6.679E-05
 ETOT  7  -131.84287278456    -6.349E-10 3.335E-05 1.128E-06 6.919E-06 5.987E-05
 ETOT  8  -131.84287278498    -4.259E-10 1.023E-04 1.499E-07 1.230E-05 4.756E-05
 ETOT  9  -131.84287278506    -7.847E-11 2.846E-05 5.885E-08 3.701E-06 4.386E-05
 ETOT 10  -131.84287278510    -4.371E-11 9.473E-05 1.504E-08 1.645E-06 4.551E-05
 ETOT 11  -131.84287278511    -6.025E-12 2.477E-05 3.830E-09 6.172E-07 4.544E-05
 ETOT 12  -131.84287278512    -1.205E-11 8.784E-05 2.129E-09 4.019E-07 4.557E-05
 ETOT 13  -131.84287278512    -2.274E-13 2.274E-05 5.019E-10 5.283E-07 4.536E-05
 ETOT 14  -131.84287278512     6.565E-12 8.133E-05 1.706E-10 1.488E-07 4.539E-05
 ETOT 15  -131.84287278512    -3.865E-12 2.117E-05 4.192E-10 1.195E-07 4.549E-05

 At SCF step   15, forces are converged :
  for the second time, max diff in force=  1.195E-07 < toldff=  5.000E-07

 Cartesian components of stress tensor (hartree/bohr^3)
  sigma(1 1)= -6.33995795E-07  sigma(3 2)=  0.00000000E+00
  sigma(2 2)= -6.33995795E-07  sigma(3 1)=  0.00000000E+00
  sigma(3 3)=  2.67829839E-06  sigma(2 1)=  0.00000000E+00

 Unit cell characteristics :
  acell=  7.4386440868E+00  7.4386440868E+00  7.4643380477E+00
  rprim=  1.0000000000E+00  0.0000000000E+00  0.0000000000E+00
          0.0000000000E+00  1.0000000000E+00  0.0000000000E+00
          0.0000000000E+00  0.0000000000E+00  1.0000000000E+00
  ucvol=  4.1302739588E+02 Bohr^3
  lengths=  7.4386440868E+00  7.4386440868E+00  7.4643380477E+00 Bohr
  angles (23,13,12)=  90.00000000  90.00000000  90.00000000 degrees
 Cartesian coordinates (bohr)
  0.00000000000000E+00  0.00000000000000E+00  2.60038303117771E-02
  3.71932204339228E+00  3.71932204339228E+00  3.80909169594746E+00
  0.00000000000000E+00  3.71932204339228E+00  3.70479893073651E+00
  3.71932204339228E+00  0.00000000000000E+00  3.70479893073651E+00
  3.71932204339228E+00  3.71932204339228E+00 -4.81863162797683E-02
 Cartesian forces (hart/bohr); max,rms= 4.54889E-05 1.71546E-05 (free atoms)
 -0.00000000000000E+00 -0.00000000000000E+00 -4.54888908229687E-05
 -0.00000000000000E+00 -0.00000000000000E+00  2.88142555035644E-05
 -0.00000000000000E+00 -0.00000000000000E+00  2.09530583711472E-05
 -0.00000000000000E+00 -0.00000000000000E+00  2.09530583711472E-05
 -0.00000000000000E+00 -0.00000000000000E+00 -2.52314814228902E-05

 At the end of Broyden step  3, total energy= -1.31842872785120E+02 Ha.


 BROYDEN STEP NUMBER   4  ------------------------------------------------------

     iter   Etot(hartree)      deltaE(h)  residm     vres2    diffor    maxfor
 ETOT  1  -131.84279523468    -1.318E+02 3.436E-03 5.538E-01 4.564E-02 4.561E-02
 ETOT  2  -131.84286103919    -6.580E-05 1.040E-04 5.869E-02 6.265E-02 1.705E-02
 ETOT  3  -131.84287166012    -1.062E-05 2.481E-05 5.670E-03 2.016E-02 3.113E-03
 ETOT  4  -131.84287277894    -1.119E-06 8.288E-05 9.153E-04 2.675E-03 4.382E-04
 ETOT  5  -131.84287298645    -2.075E-07 2.345E-05 3.104E-05 6.671E-04 3.202E-04
 ETOT  6  -131.84287299459    -8.144E-09 7.647E-05 4.008E-06 2.564E-04 6.388E-05
 ETOT  7  -131.84287299592    -1.323E-09 2.220E-05 3.407E-06 1.161E-05 5.227E-05
 ETOT  8  -131.84287299695    -1.031E-09 7.187E-05 4.929E-07 1.121E-05 4.888E-05
 ETOT  9  -131.84287299710    -1.576E-10 2.100E-05 3.217E-07 9.447E-06 4.715E-05
 ETOT 10  -131.84287299720    -9.319E-11 6.750E-05 2.125E-08 2.468E-06 4.488E-05
 ETOT 11  -131.84287299721    -1.398E-11 1.984E-05 5.473E-09 1.301E-06 4.418E-05
 ETOT 12  -131.84287299723    -1.884E-11 6.330E-05 7.191E-09 9.413E-07 4.502E-05
 ETOT 13  -131.84287299722     6.793E-12 1.871E-05 1.390E-10 7.800E-07 4.424E-05
 ETOT 14  -131.84287299723    -5.400E-12 5.927E-05 1.175E-09 2.916E-07 4.432E-05
 ETOT 15  -131.84287299723     2.274E-12 1.762E-05 1.052E-10 2.114E-07 4.418E-05

 At SCF step   15, forces are converged :
  for the second time, max diff in force=  2.114E-07 < toldff=  5.000E-07

 Cartesian components of stress tensor (hartree/bohr^3)
  sigma(1 1)= -8.30389211E-07  sigma(3 2)=  0.00000000E+00
  sigma(2 2)= -8.30389211E-07  sigma(3 1)=  0.00000000E+00
  sigma(3 3)=  1.40196683E-06  sigma(2 1)=  0.00000000E+00

 Unit cell characteristics :
  acell=  7.4390452046E+00  7.4390452046E+00  7.4621672535E+00
  rprim=  1.0000000000E+00  0.0000000000E+00  0.0000000000E+00
          0.0000000000E+00  1.0000000000E+00  0.0000000000E+00
          0.0000000000E+00  0.0000000000E+00  1.0000000000E+00
  ucvol=  4.1295181042E+02 Bohr^3
  lengths=  7.4390452046E+00  7.4390452046E+00  7.4621672535E+00 Bohr
  angles (23,13,12)=  90.00000000  90.00000000  90.00000000 degrees
 Cartesian coordinates (bohr)
  0.00000000000000E+00  0.00000000000000E+00  2.48903680719739E-02
  3.71952260230600E+00  3.71952260230600E+00  3.80528387274097E+00
  0.00000000000000E+00  3.71952260230600E+00  3.70479704934993E+00
  3.71952260230600E+00  0.00000000000000E+00  3.70479704934993E+00
  3.71952260230600E+00  3.71952260230600E+00 -4.65174593730383E-02
 Cartesian forces (hart/bohr); max,rms= 4.41802E-05 1.49461E-05 (free atoms)
 -0.00000000000000E+00 -0.00000000000000E+00 -3.25879656105284E-05
 -0.00000000000000E+00 -0.00000000000000E+00  4.41802388927370E-05
 -0.00000000000000E+00 -0.00000000000000E+00  3.11351523300389E-06
 -0.00000000000000E+00 -0.00000000000000E+00  3.11351523300389E-06
 -0.00000000000000E+00 -0.00000000000000E+00 -1.78193037482164E-05

 At the end of Broyden step  4, total energy= -1.31842872997226E+02 Ha.


 BROYDEN STEP NUMBER   5  ------------------------------------------------------

     iter   Etot(hartree)      deltaE(h)  residm     vres2    diffor    maxfor
 ETOT  1  -131.84286718417    -1.318E+02 7.502E-04 4.134E-02 1.156E-02 1.152E-02
 ETOT  2  -131.84287224329    -5.059E-06 1.677E-05 4.050E-03 1.566E-02 4.139E-03
 ETOT  3  -131.84287290613    -6.628E-07 5.446E-05 7.551E-04 4.899E-03 7.597E-04
 ETOT  4  -131.84287305161    -1.455E-07 1.480E-05 5.812E-05 6.061E-04 1.536E-04
 ETOT  5  -131.84287306424    -1.263E-08 4.709E-05 2.644E-06 2.376E-04 1.190E-04
 ETOT  6  -131.84287306479    -5.530E-10 1.222E-05 6.531E-07 8.336E-05 3.564E-05
 ETOT  7  -131.84287306499    -1.965E-10 4.276E-05 1.612E-07 1.075E-05 2.886E-05
 ETOT  8  -131.84287306504    -4.835E-11 1.030E-05 1.242E-08 5.281E-06 3.414E-05
 ETOT  9  -131.84287306505    -1.538E-11 3.926E-05 1.138E-08 1.225E-06 3.291E-05
 ETOT 10  -131.84287306506    -2.473E-12 8.948E-06 1.102E-09 9.162E-07 3.305E-05
 ETOT 11  -131.84287306506    -1.705E-12 3.608E-05 7.499E-10 3.402E-07 3.293E-05
 ETOT 12  -131.84287306506    -4.121E-12 8.699E-06 1.716E-10 1.670E-07 3.284E-05

 At SCF step   12, forces are converged :
  for the second time, max diff in force=  1.670E-07 < toldff=  5.000E-07

 Cartesian components of stress tensor (hartree/bohr^3)
  sigma(1 1)= -5.66954852E-07  sigma(3 2)=  0.00000000E+00
  sigma(2 2)= -5.66954852E-07  sigma(3 1)=  0.00000000E+00
  sigma(3 3)=  4.05526660E-07  sigma(2 1)=  0.00000000E+00

 Unit cell characteristics :
  acell=  7.4394464621E+00  7.4394464621E+00  7.4609842955E+00
  rprim=  1.0000000000E+00  0.0000000000E+00  0.0000000000E+00
          0.0000000000E+00  1.0000000000E+00  0.0000000000E+00
          0.0000000000E+00  0.0000000000E+00  1.0000000000E+00
  ucvol=  4.1293088912E+02 Bohr^3
  lengths=  7.4394464621E+00  7.4394464621E+00  7.4609842955E+00 Bohr
  angles (23,13,12)=  90.00000000  90.00000000  90.00000000 degrees
 Cartesian coordinates (bohr)
  0.00000000000000E+00  0.00000000000000E+00  2.45059157686822E-02
  3.71972323106282E+00  3.71972323106282E+00  3.80394439434304E+00
  0.00000000000000E+00  3.71972323106282E+00  3.70453693438216E+00
  3.71972323106282E+00  0.00000000000000E+00  3.70453693438216E+00
  3.71972323106282E+00  3.71972323106282E+00 -4.60477356203832E-02
 Cartesian forces (hart/bohr); max,rms= 3.28438E-05 1.04835E-05 (free atoms)
 -0.00000000000000E+00 -0.00000000000000E+00 -2.31882420059389E-05
 -0.00000000000000E+00 -0.00000000000000E+00  3.28437921395065E-05
 -0.00000000000000E+00 -0.00000000000000E+00 -3.64131139477685E-06
 -0.00000000000000E+00 -0.00000000000000E+00 -3.64131139477685E-06
 -0.00000000000000E+00 -0.00000000000000E+00 -2.37292734401397E-06

 At the end of Broyden step  5, total energy= -1.31842873065062E+02 Ha.


 BROYDEN STEP NUMBER   6  ------------------------------------------------------

     iter   Etot(hartree)      deltaE(h)  residm     vres2    diffor    maxfor
 ETOT  1  -131.84287237975    -1.318E+02 1.765E-04 5.879E-03 4.761E-03 4.794E-03
 ETOT  2  -131.84287291648    -5.367E-07 1.003E-05 9.019E-04 6.760E-03 1.966E-03
 ETOT  3  -131.84287306628    -1.498E-07 3.940E-05 1.093E-04 2.258E-03 3.203E-04
 ETOT  4  -131.84287308404    -1.776E-08 6.519E-06 8.496E-06 2.110E-04 1.096E-04
 ETOT  5  -131.84287308576    -1.717E-09 2.929E-05 1.794E-07 1.066E-04 1.704E-05
 ETOT  6  -131.84287308583    -7.137E-11 6.122E-06 3.067E-08 1.545E-05 1.809E-05
 ETOT  7  -131.84287308584    -1.589E-11 2.774E-05 4.437E-08 2.773E-06 1.763E-05
 ETOT  8  -131.84287308585    -5.627E-12 6.018E-06 4.365E-09 1.419E-06 1.744E-05
 ETOT  9  -131.84287308585    -3.666E-12 2.741E-05 1.377E-09 3.512E-07 1.727E-05
 ETOT 10  -131.84287308585     1.450E-12 5.913E-06 1.511E-10 2.179E-07 1.737E-05

 At SCF step   10, forces are converged :
  for the second time, max diff in force=  2.179E-07 < toldff=  5.000E-07

 Cartesian components of stress tensor (hartree/bohr^3)
  sigma(1 1)= -1.84893534E-07  sigma(3 2)=  0.00000000E+00
  sigma(2 2)= -1.84893534E-07  sigma(3 1)=  0.00000000E+00
  sigma(3 3)= -6.16701159E-08  sigma(2 1)=  0.00000000E+00

 Unit cell characteristics :
  acell=  7.4397213770E+00  7.4397213770E+00  7.4605978825E+00
  rprim=  1.0000000000E+00  0.0000000000E+00  0.0000000000E+00
          0.0000000000E+00  1.0000000000E+00  0.0000000000E+00
          0.0000000000E+00  0.0000000000E+00  1.0000000000E+00
  ucvol=  4.1294002056E+02 Bohr^3
  lengths=  7.4397213770E+00  7.4397213770E+00  7.4605978825E+00 Bohr
  angles (23,13,12)=  90.00000000  90.00000000  90.00000000 degrees
 Cartesian coordinates (bohr)
  0.00000000000000E+00  0.00000000000000E+00  2.45047249293525E-02
  3.71986068850878E+00  3.71986068850878E+00  3.80397478600856E+00
  0.00000000000000E+00  3.71986068850878E+00  3.70428922056941E+00
  3.71986068850878E+00  0.00000000000000E+00  3.70428922056941E+00
  3.71986068850878E+00  3.71986068850878E+00 -4.61611282976051E-02
 Cartesian forces (hart/bohr); max,rms= 1.73722E-05 6.65229E-06 (free atoms)
 -0.00000000000000E+00 -0.00000000000000E+00 -1.73721693518134E-05
 -0.00000000000000E+00 -0.00000000000000E+00  1.64004477810688E-05
 -0.00000000000000E+00 -0.00000000000000E+00 -3.60699440764862E-06
 -0.00000000000000E+00 -0.00000000000000E+00 -3.60699440764862E-06
 -0.00000000000000E+00 -0.00000000000000E+00  8.18571038604181E-06

 At the end of Broyden step  6, total energy= -1.31842873085852E+02 Ha.


 At Broyd/MD step   6, gradients are converged :
  max grad (force/stress) = 1.8489E-05 < tolmxf= 5.0000E-05 ha/bohr (free atoms)

================================================================================

 ----iterations are completed or convergence reached----

 Mean square residual over all n,k,spin=   4.1852E-08; max=  5.9128E-06
   0.0625  0.0625  0.0625    1  4.69985E-06 kpt; spin; max resid(k); each band:
 4.95E-17 9.19E-17 1.79E-16 1.76E-16 7.30E-17 5.64E-16 4.50E-16 4.64E-17
 1.63E-16 1.69E-16 1.91E-16 8.75E-14 6.64E-14 6.16E-14 8.25E-15 1.00E-14
 1.52E-14 2.25E-13 1.85E-12 5.55E-13 4.70E-06
   0.1875  0.0625  0.0625    1  1.93568E-10 kpt; spin; max resid(k); each band:
 5.39E-17 1.66E-16 8.99E-17 1.77E-16 6.51E-17 6.66E-16 5.93E-16 1.37E-16
 1.64E-16 1.46E-16 2.21E-16 6.17E-14 2.95E-14 3.38E-14 1.81E-14 7.42E-15
 4.04E-14 3.71E-14 7.75E-14 3.61E-14 1.94E-10
   0.3125  0.0625  0.0625    1  1.00810E-12 kpt; spin; max resid(k); each band:
 5.71E-17 1.62E-16 7.90E-17 1.72E-16 5.30E-17 7.50E-16 6.02E-16 1.41E-16
 9.20E-17 1.40E-16 2.96E-16 1.04E-14 1.14E-14 1.52E-14 4.63E-15 8.57E-15
 1.38E-14 1.69E-14 1.12E-14 2.11E-14 1.01E-12
   0.4375  0.0625  0.0625    1  3.00486E-13 kpt; spin; max resid(k); each band:
 6.20E-17 1.62E-16 8.73E-17 1.70E-16 4.21E-17 7.84E-16 5.85E-16 1.54E-16
 6.28E-17 6.57E-17 3.61E-16 1.70E-15 4.52E-15 1.14E-14 3.28E-15 4.59E-15
 6.88E-15 4.35E-15 1.63E-14 1.36E-14 3.00E-13
   0.1875  0.1875  0.0625    1  4.68547E-06 kpt; spin; max resid(k); each band:
 5.88E-17 1.69E-16 1.59E-16 8.66E-17 5.43E-17 7.26E-16 8.96E-17 5.52E-16
 1.95E-16 1.23E-16 1.92E-16 6.79E-15 1.29E-14 7.79E-15 8.38E-15 1.53E-15
 3.53E-14 2.57E-14 2.48E-14 4.05E-14 4.69E-06
   0.3125  0.1875  0.0625    1  4.53654E-12 kpt; spin; max resid(k); each band:
 6.22E-17 1.58E-16 1.62E-16 7.77E-17 4.53E-17 7.85E-16 5.06E-16 3.78E-16
 1.88E-16 1.45E-16 2.11E-16 9.99E-15 4.16E-15 7.53E-15 8.07E-15 1.65E-15
 2.10E-14 8.77E-15 2.70E-14 5.46E-15 4.54E-12
   0.4375  0.1875  0.0625    1  8.41954E-13 kpt; spin; max resid(k); each band:
 6.76E-17 1.58E-16 1.57E-16 8.50E-17 3.34E-17 8.05E-16 5.69E-16 1.89E-16
 1.25E-16 1.94E-16 2.57E-16 1.64E-15 1.21E-15 1.85E-15 3.87E-15 3.46E-15
 2.44E-14 4.29E-14 1.31E-14 4.95E-15 8.42E-13
   0.3125  0.3125  0.0625    1  7.10713E-08 kpt; spin; max resid(k); each band:
 6.77E-17 1.55E-16 1.54E-16 7.96E-17 2.91E-17 7.35E-16 1.47E-16 5.40E-16
 2.34E-16 1.60E-16 1.63E-16 6.96E-16 5.35E-15 3.97E-16 4.79E-15 9.09E-16
 3.01E-14 1.88E-14 2.69E-14 4.66E-15 7.11E-08
   0.4375  0.3125  0.0625    1  5.75395E-10 kpt; spin; max resid(k); each band:
 7.24E-17 1.49E-16 1.47E-16 8.24E-17 2.16E-17 7.22E-16 4.80E-16 3.56E-16
 2.15E-16 2.84E-16 7.74E-17 1.18E-15 3.94E-16 1.15E-15 5.66E-15 6.88E-16
 5.21E-14 1.61E-14 1.84E-14 6.13E-15 5.75E-10
   0.4375  0.4375  0.0625    1  5.80341E-07 kpt; spin; max resid(k); each band:
 7.68E-17 1.59E-16 1.50E-16 7.32E-17 1.15E-17 4.20E-16 1.95E-16 3.88E-16
 2.55E-16 2.72E-16 2.84E-17 6.21E-16 3.08E-16 4.92E-16 3.63E-15 4.51E-16
 7.74E-15 3.31E-15 3.43E-14 2.03E-15 5.80E-07
   0.0625  0.0625  0.1875    1  1.15028E-11 kpt; spin; max resid(k); each band:
 5.81E-17 8.49E-17 1.79E-16 1.76E-16 7.13E-17 3.77E-16 4.26E-17 4.28E-16
 2.00E-16 1.80E-16 1.60E-16 9.52E-15 6.15E-14 1.70E-14 2.81E-15 1.04E-14
 4.74E-15 9.21E-14 2.52E-13 7.43E-13 1.15E-11
   0.1875  0.0625  0.1875    1  7.93457E-07 kpt; spin; max resid(k); each band:
 6.32E-17 8.27E-17 1.64E-16 1.81E-16 6.26E-17 5.12E-16 6.89E-16 3.08E-16
 2.29E-16 1.60E-16 1.88E-16 8.92E-15 2.25E-14 4.05E-14 3.25E-14 1.51E-14
 3.74E-14 2.42E-14 1.54E-13 7.95E-15 7.93E-07
   0.3125  0.0625  0.1875    1  3.07387E-11 kpt; spin; max resid(k); each band:
 6.70E-17 1.59E-16 7.88E-17 1.73E-16 4.95E-17 6.53E-16 6.51E-16 1.30E-16
 1.83E-16 1.60E-16 2.22E-16 2.51E-15 4.90E-15 7.68E-15 7.66E-15 1.03E-15
 9.34E-15 1.25E-14 6.40E-15 1.87E-14 3.07E-11
   0.4375  0.0625  0.1875    1  2.30468E-12 kpt; spin; max resid(k); each band:
 7.13E-17 1.59E-16 7.25E-17 1.70E-16 3.57E-17 7.26E-16 6.00E-16 1.71E-16
 8.83E-17 2.00E-16 2.65E-16 1.24E-15 5.74E-15 6.12E-15 2.50E-15 8.34E-16
 8.06E-15 7.91E-15 4.61E-15 9.59E-15 2.30E-12
   0.1875  0.1875  0.1875    1  5.91279E-06 kpt; spin; max resid(k); each band:
 6.84E-17 8.11E-17 1.67E-16 1.59E-16 5.49E-17 6.30E-16 6.21E-16 7.89E-17
 2.02E-16 1.81E-16 1.65E-16 7.68E-15 2.37E-14 1.02E-14 2.05E-14 5.51E-15
 2.74E-14 1.62E-14 1.60E-14 1.67E-14 5.91E-06
   0.3125  0.1875  0.1875    1  6.12184E-10 kpt; spin; max resid(k); each band:
 7.27E-17 1.56E-16 7.73E-17 1.58E-16 4.22E-17 7.24E-16 6.29E-16 1.79E-16
 1.41E-16 2.56E-16 1.69E-16 3.90E-15 4.17E-15 5.54E-15 3.68E-15 6.47E-15
 5.82E-15 1.00E-14 1.16E-14 2.03E-14 6.12E-10
   0.4375  0.1875  0.1875    1  6.16772E-13 kpt; spin; max resid(k); each band:
 7.79E-17 1.55E-16 6.99E-17 1.53E-16 3.00E-17 7.70E-16 5.95E-16 1.82E-16
 1.20E-16 3.31E-16 1.48E-16 1.43E-15 2.00E-15 3.03E-15 6.40E-15 2.42E-15
 3.82E-15 5.85E-15 2.82E-14 6.29E-15 6.17E-13
   0.3125  0.3125  0.1875    1  2.51040E-06 kpt; spin; max resid(k); each band:
 7.82E-17 1.59E-16 1.51E-16 7.13E-17 2.58E-17 7.51E-16 1.33E-16 6.06E-16
 1.81E-16 2.31E-16 1.92E-16 1.70E-15 2.44E-15 1.87E-15 3.36E-15 7.10E-16
 4.85E-15 7.13E-15 5.94E-15 7.09E-15 2.51E-06
   0.4375  0.3125  0.1875    1  1.13257E-08 kpt; spin; max resid(k); each band:
 8.46E-17 1.50E-16 1.45E-16 6.02E-17 1.96E-17 7.40E-16 5.08E-16 3.89E-16
 1.78E-16 2.96E-16 1.58E-16 9.25E-16 8.00E-16 8.72E-16 2.48E-15 1.89E-15
 5.56E-15 1.55E-15 3.11E-14 1.77E-14 1.13E-08
   0.4375  0.4375  0.1875    1  1.17703E-06 kpt; spin; max resid(k); each band:
 8.72E-17 1.52E-16 1.46E-16 6.26E-17 1.05E-17 4.65E-16 1.87E-16 4.52E-16
 2.43E-16 2.66E-16 1.07E-16 3.09E-16 5.95E-16 2.81E-16 2.67E-15 6.79E-16
 5.75E-15 1.46E-14 7.84E-15 1.07E-15 1.18E-06
   0.0625  0.0625  0.3125    1  2.78444E-13 kpt; spin; max resid(k); each band:
 6.51E-17 6.69E-17 1.80E-16 1.76E-16 6.93E-17 2.07E-16 3.91E-17 3.34E-16
 1.73E-16 2.13E-16 1.66E-16 2.06E-15 1.45E-14 7.62E-15 9.78E-15 5.96E-15
 2.88E-15 4.27E-14 1.21E-13 1.15E-13 2.78E-13
   0.1875  0.0625  0.3125    1  1.22175E-11 kpt; spin; max resid(k); each band:
 7.06E-17 7.37E-17 1.63E-16 1.72E-16 5.91E-17 2.59E-16 3.01E-16 5.47E-16
 2.58E-16 1.62E-16 1.85E-16 3.22E-15 1.10E-14 8.37E-15 1.27E-14 2.23E-15
 3.45E-14 2.63E-14 1.20E-13 1.77E-14 1.22E-11
   0.3125  0.0625  0.3125    1  2.10024E-06 kpt; spin; max resid(k); each band:
 7.57E-17 7.04E-17 1.55E-16 1.81E-16 4.09E-17 4.00E-16 8.31E-16 4.95E-16
 2.83E-16 1.69E-16 1.66E-16 3.77E-15 4.01E-15 3.83E-15 2.24E-14 8.67E-15
 4.59E-14 7.71E-14 3.34E-14 1.31E-14 2.10E-06
   0.4375  0.0625  0.3125    1  2.92338E-11 kpt; spin; max resid(k); each band:
 7.98E-17 1.55E-16 6.53E-17 1.70E-16 2.85E-17 5.47E-16 7.37E-16 2.74E-16
 1.55E-16 3.85E-16 6.48E-17 1.46E-15 1.54E-15 2.29E-15 1.11E-15 7.18E-16
 4.26E-15 1.54E-14 1.19E-14 3.55E-14 2.92E-11
   0.1875  0.1875  0.3125    1  1.10938E-09 kpt; spin; max resid(k); each band:
 7.67E-17 7.00E-17 1.63E-16 1.56E-16 4.83E-17 3.30E-16 7.36E-17 4.96E-16
 1.98E-16 2.09E-16 1.83E-16 4.05E-15 6.58E-15 5.38E-15 1.18E-14 5.44E-15
 3.86E-14 2.41E-15 3.71E-15 4.35E-14 1.11E-09
   0.3125  0.1875  0.3125    1  3.06630E-06 kpt; spin; max resid(k); each band:
 8.20E-17 6.65E-17 1.53E-16 1.63E-16 3.31E-17 5.01E-16 7.81E-16 4.10E-16
 2.03E-16 2.43E-16 1.87E-16 3.60E-15 3.65E-15 8.06E-15 1.24E-14 6.71E-15
 1.26E-14 1.30E-14 1.29E-14 8.84E-15 3.07E-06
   0.4375  0.1875  0.3125    1  5.88802E-09 kpt; spin; max resid(k); each band:
 8.66E-17 1.51E-16 6.26E-17 1.51E-16 2.30E-17 6.33E-16 7.11E-16 2.58E-16
 1.23E-16 3.60E-16 1.53E-16 1.46E-15 1.69E-15 1.72E-15 1.34E-15 1.12E-15
 1.89E-15 6.52E-15 1.58E-14 1.88E-14 5.89E-09
   0.3125  0.3125  0.3125    1  1.75258E-06 kpt; spin; max resid(k); each band:
 8.78E-17 5.46E-17 1.50E-16 1.46E-16 2.26E-17 6.75E-16 6.77E-16 1.17E-16
 2.35E-16 2.07E-16 2.27E-16 3.28E-15 3.26E-15 1.54E-15 4.54E-15 4.57E-15
 1.34E-15 9.71E-15 6.11E-15 4.27E-15 1.75E-06
   0.4375  0.3125  0.3125    1  2.04541E-07 kpt; spin; max resid(k); each band:
 9.37E-17 1.47E-16 5.57E-17 1.41E-16 1.49E-17 7.35E-16 6.78E-16 2.74E-16
 1.70E-16 3.00E-16 2.01E-16 1.09E-15 1.74E-15 1.10E-15 1.17E-15 2.32E-15
 1.27E-15 3.52E-15 3.13E-14 8.64E-15 2.05E-07
   0.4375  0.4375  0.3125    1  3.84725E-07 kpt; spin; max resid(k); each band:
 9.74E-17 1.48E-16 1.50E-16 5.01E-17 8.21E-18 5.68E-16 1.61E-16 5.27E-16
 2.11E-16 2.59E-16 1.72E-16 2.81E-16 4.58E-16 6.86E-16 4.96E-16 7.41E-16
 2.30E-15 2.93E-14 9.28E-15 1.47E-15 3.85E-07
   0.0625  0.0625  0.4375    1  1.09552E-13 kpt; spin; max resid(k); each band:
 6.73E-17 7.24E-17 1.79E-16 1.76E-16 6.35E-17 1.69E-16 3.81E-17 2.89E-16
 1.70E-16 1.95E-16 1.64E-16 1.60E-15 1.21E-14 4.24E-16 4.45E-15 3.39E-15
 2.04E-15 7.08E-15 1.10E-13 2.32E-14 2.26E-14
   0.1875  0.0625  0.4375    1  5.93550E-13 kpt; spin; max resid(k); each band:
 7.32E-17 7.24E-17 1.63E-16 1.76E-16 5.16E-17 1.71E-16 6.55E-17 3.80E-16
 2.44E-16 1.88E-16 1.71E-16 2.82E-15 7.12E-15 1.84E-14 4.44E-15 1.58E-14
 1.44E-14 3.06E-14 6.52E-14 8.67E-15 5.94E-13
   0.3125  0.0625  0.4375    1  2.26755E-09 kpt; spin; max resid(k); each band:
 8.03E-17 6.57E-17 1.53E-16 1.67E-16 3.51E-17 1.64E-16 5.07E-16 6.44E-16
 3.42E-16 1.41E-16 1.31E-16 2.60E-15 1.24E-15 1.22E-15 1.93E-14 4.02E-15
 4.69E-14 1.93E-14 1.30E-14 2.14E-14 2.27E-09
   0.4375  0.0625  0.4375    1  7.55150E-07 kpt; spin; max resid(k); each band:
 8.42E-17 5.95E-17 1.51E-16 1.71E-16 1.93E-17 1.74E-16 7.85E-16 5.48E-16
 3.60E-16 2.47E-16 4.33E-17 9.44E-16 1.05E-15 1.91E-15 7.88E-15 2.86E-15
 1.75E-15 1.15E-14 1.23E-14 4.32E-14 7.55E-07
   0.1875  0.1875  0.4375    1  7.53813E-12 kpt; spin; max resid(k); each band:
 8.01E-17 5.48E-17 1.62E-16 1.59E-16 4.17E-17 1.81E-16 6.63E-17 3.83E-16
 2.00E-16 1.77E-16 2.28E-16 3.32E-15 6.20E-15 3.65E-15 4.12E-15 2.40E-15
 3.28E-14 1.03E-15 3.18E-15 5.02E-15 7.54E-12
   0.3125  0.1875  0.4375    1  1.50872E-07 kpt; spin; max resid(k); each band:
 8.73E-17 6.07E-17 1.52E-16 1.60E-16 2.78E-17 1.90E-16 6.52E-16 6.80E-16
 2.52E-16 1.49E-16 2.26E-16 2.21E-15 3.70E-15 3.51E-15 1.60E-14 1.46E-15
 1.19E-14 1.07E-14 9.40E-15 1.03E-14 1.51E-07
   0.4375  0.1875  0.4375    1  8.32995E-07 kpt; spin; max resid(k); each band:
 9.12E-17 5.61E-17 1.49E-16 1.55E-16 1.55E-17 2.36E-16 7.16E-16 4.79E-16
 2.85E-16 2.38E-16 1.67E-16 1.84E-15 7.18E-16 7.32E-16 1.28E-14 3.26E-15
 1.32E-14 7.67E-15 4.97E-15 1.36E-14 8.33E-07
   0.3125  0.3125  0.4375    1  1.32603E-07 kpt; spin; max resid(k); each band:
 9.40E-17 5.46E-17 1.48E-16 1.49E-16 1.78E-17 2.49E-16 4.44E-16 1.04E-16
 2.33E-16 1.54E-16 2.62E-16 2.99E-15 3.68E-15 1.87E-15 1.95E-15 1.39E-15
 1.62E-15 1.77E-15 1.84E-15 4.14E-15 1.33E-07
   0.4375  0.3125  0.4375    1  5.27326E-06 kpt; spin; max resid(k); each band:
 9.83E-17 4.94E-17 1.46E-16 1.53E-16 9.97E-18 4.00E-16 6.01E-16 3.19E-16
 2.33E-16 2.49E-16 2.37E-16 1.58E-15 1.63E-15 1.94E-15 1.85E-15 3.02E-15
 3.01E-15 1.62E-14 1.01E-14 1.02E-14 5.27E-06
   0.4375  0.4375  0.4375    1  5.00941E-08 kpt; spin; max resid(k); each band:
 1.02E-16 4.44E-17 1.46E-16 1.42E-16 6.01E-18 6.68E-16 6.31E-16 1.43E-16
 2.52E-16 1.82E-16 2.19E-16 1.07E-15 4.76E-16 5.12E-16 1.39E-15 9.79E-16
 1.15E-15 4.78E-14 3.30E-15 3.70E-15 5.01E-08
 reduced coordinates (array xred) for    5 atoms
       0.000000000000      0.000000000000      0.003284552433
       0.500000000000      0.500000000000      0.509875327138
       0.000000000000      0.500000000000      0.496513721673
       0.500000000000      0.000000000000      0.496513721673
       0.500000000000      0.500000000000     -0.006187322923
 rms dE/dt=  4.9771E-05; max dE/dt=  1.2312E-04; dE/dt below (all hartree)
    1       0.000000000000      0.000000000000      0.000123119086
    2       0.000000000000      0.000000000000     -0.000128844830
    3       0.000000000000      0.000000000000      0.000020422651
    4       0.000000000000      0.000000000000      0.000020422651
    5       0.000000000000      0.000000000000     -0.000067557977

 cartesian coordinates (angstrom) at end:
    1      0.00000000000000     0.00000000000000     0.01297715056251
    2      1.96817196927396     1.96817196927396     2.01449939455983
    3      0.00000000000000     1.96817196927396     1.96170816367099
    4      1.96817196927396     0.00000000000000     1.96170816367099
    5      1.96817196927396     1.96817196927396    -0.02444589416043

 cartesian forces (hartree/bohr) at end:
    1     -0.00000000000000    -0.00000000000000    -0.00001735903880
    2     -0.00000000000000    -0.00000000000000     0.00001638805169
    3     -0.00000000000000    -0.00000000000000    -0.00000360426810
    4     -0.00000000000000    -0.00000000000000    -0.00000360426810
    5     -0.00000000000000    -0.00000000000000     0.00000817952331
 frms,max,avg= 6.6472579E-06 1.7359039E-05   0.000E+00  0.000E+00  8.689E-07 h/b

 cartesian forces (eV/Angstrom) at end:
    1     -0.00000000000000    -0.00000000000000    -0.00089263759019
    2     -0.00000000000000    -0.00000000000000     0.00084270742985
    3     -0.00000000000000    -0.00000000000000    -0.00018533890216
    4     -0.00000000000000    -0.00000000000000    -0.00018533890216
    5     -0.00000000000000    -0.00000000000000     0.00042060796467
 frms,max,avg= 3.4181572E-04 8.9263759E-04   0.000E+00  0.000E+00  4.468E-05 e/A
 length scales=  7.439721377018  7.439721377018  7.460597882545 bohr
              =  3.936930990977  3.936930990977  3.947978361897 angstroms
 prteigrs : about to open file perovskite-tetragonal_o_EIG
 Fermi (or HOMO) energy (hartree) =   0.26716   Average Vxc (hartree)=  -0.43837
 Eigenvalues (hartree) for nkpt=  40  k points:
 kpt#   1, nband= 21, wtk=  0.01563, kpt=  0.0625  0.0625  0.0625 (reduced coord)
  -1.77854  -0.91862  -0.91827  -0.91827  -0.63617  -0.34226  -0.31604  -0.31564
  -0.09092  -0.09081  -0.08775   0.17888   0.18347   0.18361   0.21625   0.21644
   0.22647   0.25277   0.26080   0.26131   0.34299
 kpt#   2, nband= 21, wtk=  0.03125, kpt=  0.1875  0.0625  0.0625 (reduced coord)
  -1.77852  -0.91898  -0.91858  -0.91823  -0.63468  -0.34374  -0.31543  -0.31407
  -0.08958  -0.08933  -0.08203   0.16139   0.17789   0.17942   0.20193   0.20565
   0.22289   0.23275   0.25247   0.25446   0.34613
 kpt#   3, nband= 21, wtk=  0.03125, kpt=  0.3125  0.0625  0.0625 (reduced coord)
  -1.77850  -0.91999  -0.91854  -0.91819  -0.63253  -0.34850  -0.31467  -0.30837
  -0.08716  -0.08578  -0.07600   0.13652   0.16885   0.17081   0.19020   0.19175
   0.21427   0.21819   0.24205   0.24598   0.34849
 kpt#   4, nband= 21, wtk=  0.03125, kpt=  0.4375  0.0625  0.0625 (reduced coord)
  -1.77848  -0.92071  -0.91851  -0.91816  -0.63098  -0.35277  -0.31413  -0.30290
  -0.08555  -0.08241  -0.07254   0.11920   0.16274   0.16403   0.17748   0.18620
   0.20904   0.21525   0.23448   0.24045   0.35021
 kpt#   5, nband= 21, wtk=  0.01563, kpt=  0.1875  0.1875  0.0625 (reduced coord)
  -1.77850  -0.91897  -0.91893  -0.91855  -0.63334  -0.34273  -0.31485  -0.31386
  -0.09117  -0.08832  -0.07712   0.15055   0.16843   0.17580   0.18688   0.19642
   0.21636   0.22923   0.24564   0.25162   0.36226
 kpt#   6, nband= 21, wtk=  0.03125, kpt=  0.3125  0.1875  0.0625 (reduced coord)
  -1.77848  -0.91995  -0.91890  -0.91851  -0.63142  -0.34433  -0.31387  -0.31014
  -0.09026  -0.08578  -0.07481   0.13204   0.15720   0.16550   0.17344   0.18726
   0.20878   0.22720   0.23567   0.24750   0.36628
 kpt#   7, nband= 21, wtk=  0.03125, kpt=  0.4375  0.1875  0.0625 (reduced coord)
  -1.77846  -0.92066  -0.91886  -0.91848  -0.63002  -0.34700  -0.31302  -0.30568
  -0.08902  -0.08136  -0.07666   0.11702   0.14983   0.15829   0.16416   0.18375
   0.21169   0.22064   0.23159   0.24127   0.36776
 kpt#   8, nband= 21, wtk=  0.01563, kpt=  0.3125  0.3125  0.0625 (reduced coord)
  -1.77845  -0.91991  -0.91988  -0.91847  -0.62981  -0.33971  -0.31364  -0.31008
  -0.09182  -0.08592  -0.07563   0.12400   0.14286   0.14391   0.17070   0.17670
   0.20726   0.22482   0.23379   0.25554   0.38798
 kpt#   9, nband= 21, wtk=  0.03125, kpt=  0.4375  0.3125  0.0625 (reduced coord)
  -1.77844  -0.92059  -0.91985  -0.91844  -0.62865  -0.33814  -0.31228  -0.30923
  -0.09150  -0.08640  -0.07707   0.11389   0.12885   0.13798   0.16434   0.17367
   0.20978   0.22420   0.23247   0.25779   0.39101
 kpt#  10, nband= 21, wtk=  0.01563, kpt=  0.4375  0.4375  0.0625 (reduced coord)
  -1.77842  -0.92055  -0.92054  -0.91842  -0.62767  -0.33112  -0.31271  -0.31136
  -0.09227  -0.09095  -0.07643   0.10834   0.11727   0.12490   0.16445   0.16507
   0.20362   0.23419   0.23807   0.26486   0.40672
 kpt#  11, nband= 21, wtk=  0.01563, kpt=  0.0625  0.0625  0.1875 (reduced coord)
  -1.77852  -0.91931  -0.91823  -0.91823  -0.63471  -0.34370  -0.31512  -0.31452
  -0.08949  -0.08933  -0.08207   0.16128   0.17790   0.17936   0.20222   0.20552
   0.22286   0.23345   0.25346   0.25394   0.34446
 kpt#  12, nband= 21, wtk=  0.03125, kpt=  0.1875  0.0625  0.1875 (reduced coord)
  -1.77851  -0.91928  -0.91895  -0.91820  -0.63337  -0.34268  -0.31525  -0.31364
  -0.09108  -0.08822  -0.07718   0.15059   0.16800   0.17587   0.18696   0.19629
   0.21837   0.22931   0.24467   0.25123   0.36244
 kpt#  13, nband= 21, wtk=  0.03125, kpt=  0.3125  0.0625  0.1875 (reduced coord)
  -1.77848  -0.91996  -0.91923  -0.91816  -0.63144  -0.34430  -0.31415  -0.31003
  -0.09012  -0.08567  -0.07481   0.13209   0.15667   0.16564   0.17347   0.18744
   0.21043   0.22748   0.23439   0.24698   0.36689
 kpt#  14, nband= 21, wtk=  0.03125, kpt=  0.4375  0.0625  0.1875 (reduced coord)
  -1.77846  -0.92066  -0.91919  -0.91814  -0.63005  -0.34701  -0.31318  -0.30569
  -0.08890  -0.08123  -0.07657   0.11706   0.14955   0.15821   0.16411   0.18422
   0.21253   0.22179   0.23002   0.24056   0.36833
 kpt#  15, nband= 21, wtk=  0.01563, kpt=  0.1875  0.1875  0.1875 (reduced coord)
  -1.77849  -0.91925  -0.91893  -0.91890  -0.63215  -0.34027  -0.31433  -0.31388
  -0.09283  -0.09269  -0.07148   0.14027   0.16598   0.16616   0.18597   0.18648
   0.19930   0.23730   0.24481   0.24538   0.37546
 kpt#  16, nband= 21, wtk=  0.03125, kpt=  0.3125  0.1875  0.1875 (reduced coord)
  -1.77846  -0.91992  -0.91919  -0.91886  -0.63039  -0.33971  -0.31279  -0.31119
  -0.09517  -0.09224  -0.07121   0.12753   0.15012   0.16273   0.17270   0.18036
   0.19428   0.23532   0.23945   0.24404   0.37916
 kpt#  17, nband= 21, wtk=  0.03125, kpt=  0.4375  0.1875  0.1875 (reduced coord)
  -1.77845  -0.92062  -0.91916  -0.91883  -0.62912  -0.34115  -0.31175  -0.30706
  -0.09698  -0.08717  -0.07624   0.11568   0.14298   0.15941   0.16117   0.17841
   0.19931   0.22957   0.23686   0.23953   0.38113
 kpt#  18, nband= 21, wtk=  0.01563, kpt=  0.3125  0.3125  0.1875 (reduced coord)
  -1.77844  -0.91987  -0.91984  -0.91915  -0.62888  -0.33434  -0.31201  -0.31029
  -0.09818  -0.09773  -0.07450   0.12240   0.14229   0.14667   0.16948   0.17690
   0.18586   0.23282   0.24198   0.25286   0.39677
 kpt#  19, nband= 21, wtk=  0.03125, kpt=  0.4375  0.3125  0.1875 (reduced coord)
  -1.77842  -0.92055  -0.91981  -0.91911  -0.62780  -0.33216  -0.31047  -0.30874
  -0.10187  -0.09566  -0.08138   0.11385   0.13592   0.14012   0.16367   0.17632
   0.18773   0.23286   0.24010   0.25676   0.39980
 kpt#  20, nband= 21, wtk=  0.01563, kpt=  0.4375  0.4375  0.1875 (reduced coord)
  -1.77840  -0.92051  -0.92051  -0.91908  -0.62685  -0.32499  -0.31061  -0.30954
  -0.10164  -0.10105  -0.08868   0.10869   0.12500   0.13587   0.16796   0.17211
   0.17962   0.24007   0.24350   0.26531   0.41354
 kpt#  21, nband= 21, wtk=  0.01563, kpt=  0.0625  0.0625  0.3125 (reduced coord)
  -1.77850  -0.92030  -0.91819  -0.91818  -0.63260  -0.34840  -0.31439  -0.30900
  -0.08718  -0.08576  -0.07589   0.13640   0.16887   0.17079   0.19038   0.19200
   0.21412   0.21856   0.24442   0.24582   0.34683
 kpt#  22, nband= 21, wtk=  0.03125, kpt=  0.1875  0.0625  0.3125 (reduced coord)
  -1.77848  -0.92026  -0.91890  -0.91816  -0.63148  -0.34420  -0.31382  -0.31062
  -0.09015  -0.08564  -0.07475   0.13203   0.15645   0.16596   0.17363   0.18729
   0.21079   0.22778   0.23516   0.24699   0.36595
 kpt#  23, nband= 21, wtk=  0.03125, kpt=  0.3125  0.0625  0.3125 (reduced coord)
  -1.77846  -0.92020  -0.91990  -0.91813  -0.62987  -0.33957  -0.31410  -0.31013
  -0.09151  -0.08580  -0.07550   0.12412   0.14038   0.14636   0.17071   0.17674
   0.20912   0.22394   0.23416   0.25472   0.38843
 kpt#  24, nband= 21, wtk=  0.03125, kpt=  0.4375  0.0625  0.3125 (reduced coord)
  -1.77844  -0.92060  -0.92015  -0.91810  -0.62871  -0.33808  -0.31274  -0.30926
  -0.09109  -0.08622  -0.07690   0.11395   0.12866   0.13823   0.16408   0.17414
   0.21033   0.22431   0.23270   0.25680   0.39127
 kpt#  25, nband= 21, wtk=  0.01563, kpt=  0.1875  0.1875  0.3125 (reduced coord)
  -1.77846  -0.92022  -0.91888  -0.91885  -0.63043  -0.33958  -0.31246  -0.31183
  -0.09530  -0.09200  -0.07115   0.12757   0.14979   0.16264   0.17260   0.18089
   0.19508   0.23615   0.23930   0.24347   0.37889
 kpt#  26, nband= 21, wtk=  0.03125, kpt=  0.3125  0.1875  0.3125 (reduced coord)
  -1.77844  -0.92016  -0.91986  -0.91882  -0.62892  -0.33420  -0.31246  -0.31020
  -0.09829  -0.09740  -0.07440   0.12247   0.14141   0.14757   0.16933   0.17685
   0.18651   0.23316   0.24262   0.25187   0.39686
 kpt#  27, nband= 21, wtk=  0.03125, kpt=  0.4375  0.1875  0.3125 (reduced coord)
  -1.77842  -0.92055  -0.92012  -0.91878  -0.62783  -0.33208  -0.31082  -0.30873
  -0.10165  -0.09556  -0.08128   0.11388   0.13587   0.14036   0.16355   0.17640
   0.18781   0.23318   0.24087   0.25568   0.39969
 kpt#  28, nband= 21, wtk=  0.01563, kpt=  0.3125  0.3125  0.3125 (reduced coord)
  -1.77841  -0.92011  -0.91981  -0.91979  -0.62756  -0.32699  -0.31011  -0.30960
  -0.10590  -0.10557  -0.08264   0.12191   0.14165   0.14185   0.15686   0.17774
   0.17805   0.24535   0.24596   0.25428   0.40973
 kpt#  29, nband= 21, wtk=  0.03125, kpt=  0.4375  0.3125  0.3125 (reduced coord)
  -1.77840  -0.92050  -0.92007  -0.91976  -0.62658  -0.32298  -0.30823  -0.30806
  -0.11137  -0.10622  -0.09294   0.11316   0.13683   0.14199   0.15212   0.17898
   0.18066   0.24369   0.25244   0.25817   0.41301
 kpt#  30, nband= 21, wtk=  0.01563, kpt=  0.4375  0.4375  0.3125 (reduced coord)
  -1.77838  -0.92046  -0.92046  -0.92003  -0.62567  -0.31574  -0.30748  -0.30697
  -0.11424  -0.11282  -0.10463   0.10787   0.12519   0.14129   0.15999   0.17885
   0.17997   0.25257   0.25456   0.26621   0.42361
 kpt#  31, nband= 21, wtk=  0.01563, kpt=  0.0625  0.0625  0.4375 (reduced coord)
  -1.77848  -0.92100  -0.91816  -0.91815  -0.63108  -0.35263  -0.31387  -0.30368
  -0.08562  -0.08248  -0.07224   0.11912   0.16271   0.16411   0.17798   0.18655
   0.20870   0.21491   0.23771   0.24075   0.34855
 kpt#  32, nband= 21, wtk=  0.03125, kpt=  0.1875  0.0625  0.4375 (reduced coord)
  -1.77846  -0.92094  -0.91886  -0.91814  -0.63012  -0.34683  -0.31282  -0.30649
  -0.08903  -0.08117  -0.07641   0.11703   0.14892   0.15921   0.16439   0.18389
   0.21254   0.22300   0.23092   0.24059   0.36738
 kpt#  33, nband= 21, wtk=  0.03125, kpt=  0.3125  0.0625  0.4375 (reduced coord)
  -1.77844  -0.92087  -0.91985  -0.91810  -0.62874  -0.33792  -0.31240  -0.30987
  -0.09131  -0.08593  -0.07695   0.11405   0.12805   0.13893   0.16467   0.17344
   0.21090   0.22430   0.23302   0.25682   0.39096
 kpt#  34, nband= 21, wtk=  0.03125, kpt=  0.4375  0.0625  0.4375 (reduced coord)
  -1.77842  -0.92082  -0.92055  -0.91807  -0.62775  -0.33086  -0.31331  -0.31162
  -0.09185  -0.09050  -0.07632   0.10857   0.11710   0.12522   0.16407   0.16555
   0.20405   0.23461   0.23853   0.26374   0.40695
 kpt#  35, nband= 21, wtk=  0.01563, kpt=  0.1875  0.1875  0.4375 (reduced coord)
  -1.77845  -0.92090  -0.91884  -0.91882  -0.62919  -0.34094  -0.31144  -0.30789
  -0.09712  -0.08681  -0.07617   0.11580   0.14230   0.16021   0.16083   0.17888
   0.20038   0.23039   0.23682   0.23902   0.38087
 kpt#  36, nband= 21, wtk=  0.03125, kpt=  0.3125  0.1875  0.4375 (reduced coord)
  -1.77842  -0.92083  -0.91982  -0.91878  -0.62786  -0.33188  -0.31062  -0.30926
  -0.10192  -0.09518  -0.08129   0.11407   0.13479   0.14123   0.16362   0.17645
   0.18828   0.23360   0.24055   0.25577   0.39972
 kpt#  37, nband= 21, wtk=  0.03125, kpt=  0.4375  0.1875  0.4375 (reduced coord)
  -1.77841  -0.92079  -0.92051  -0.91875  -0.62691  -0.32465  -0.31120  -0.30973
  -0.10148  -0.10060  -0.08865   0.10889   0.12507   0.13604   0.16731   0.17236
   0.18025   0.24062   0.24408   0.26418   0.41328
 kpt#  38, nband= 21, wtk=  0.01563, kpt=  0.3125  0.3125  0.4375 (reduced coord)
  -1.77840  -0.92078  -0.91977  -0.91976  -0.62660  -0.32270  -0.30891  -0.30783
  -0.11158  -0.10580  -0.09296   0.11335   0.13674   0.14174   0.15234   0.17925
   0.18066   0.24465   0.25203   0.25779   0.41307
 kpt#  39, nband= 21, wtk=  0.03125, kpt=  0.4375  0.3125  0.4375 (reduced coord)
  -1.77838  -0.92074  -0.92046  -0.91973  -0.62570  -0.31536  -0.30805  -0.30698
  -0.11429  -0.11249  -0.10467   0.10804   0.12532   0.14105   0.16016   0.17882
   0.18008   0.25307   0.25519   0.26515   0.42361
 kpt#  40, nband= 21, wtk=  0.01563, kpt=  0.4375  0.4375  0.4375 (reduced coord)
  -1.77836  -0.92071  -0.92043  -0.92043  -0.62483  -0.30831  -0.30561  -0.30512
  -0.12079  -0.12048  -0.11665   0.10327   0.12535   0.12553   0.17557   0.18150
   0.18167   0.26403   0.26465   0.26716   0.43179
 Total charge density [el/Bohr^3]
,     Maximum=    1.3827E+00  at reduced coord.    0.5000    0.5000    0.4200
,Next maximum=    1.3715E+00  at reduced coord.    0.5000    0.5200    0.4200
,     Minimum=    1.7237E-03  at reduced coord.    0.0000    0.0000    0.0000
,Next minimum=    2.0146E-03  at reduced coord.    0.0000    0.0000    0.0200

--------------------------------------------------------------------------------
 Components of total free energy (in Hartree) :

    Kinetic energy  =  6.35647862113489E+01
    Hartree energy  =  2.88978035316092E+01
    XC energy       = -2.13794876503186E+01
    Ewald energy    = -1.05265894125622E+02
    PspCore energy  =  5.06062374586910E+00
    Loc. psp. energy= -1.18820510764515E+02
    NL   psp  energy=  1.60998059657769E+01
    >>>>>>>>> Etotal= -1.31842873085852E+02

 Other information on the energy :
    Total energy(eV)= -3.58762702874437E+03 ; Band energy (Ha)=  -9.3835573065E+00
--------------------------------------------------------------------------------
 rms coord change=  5.2214E-04   atom, delta coord (reduced):
     1        0.000000000000      0.000000000000     -0.000579987164
     2        0.000000000000      0.000000000000     -0.001494826112
     3        0.000000000000      0.000000000000      0.000573558243
     4        0.000000000000      0.000000000000      0.000573558243
     5        0.000000000000      0.000000000000      0.000927696790

 Cartesian components of stress tensor (hartree/bohr^3)
  sigma(1 1)= -1.84893534E-07  sigma(3 2)=  0.00000000E+00
  sigma(2 2)= -1.84893534E-07  sigma(3 1)=  0.00000000E+00
  sigma(3 3)= -6.16701159E-08  sigma(2 1)=  0.00000000E+00

-Cartesian components of stress tensor (GPa)         [Pressure=  4.2313E-03 GPa]
- sigma(1 1)= -5.43975466E-03  sigma(3 2)=  0.00000000E+00
- sigma(2 2)= -5.43975466E-03  sigma(3 1)=  0.00000000E+00
- sigma(3 3)= -1.81439715E-03  sigma(2 1)=  0.00000000E+00

== END DATASET(S) ==============================================================
================================================================================
  
 -outvars: echo values of variables after computation  --------
     acell    7.4397213770E+00  7.4397213770E+00  7.4605978825E+00 Bohr
       amu    1.37327000E+02  4.78800000E+01  1.59994000E+01
    diemac    1.20000000E+01
   dilatmx    1.10000000E+00
      ecut    4.30000000E+01 Hartree
    ecutsm    3.00000000E+00 Hartree
    etotal   -1.3184287309E+02
     fcart   -0.0000000000E+00 -0.0000000000E+00 -1.7372169352E-05
             -0.0000000000E+00 -0.0000000000E+00  1.6400447781E-05
             -0.0000000000E+00 -0.0000000000E+00 -3.6069944076E-06
             -0.0000000000E+00 -0.0000000000E+00 -3.6069944076E-06
             -0.0000000000E+00 -0.0000000000E+00  8.1857103860E-06
    ionmov         2
       ixc         3
       kpt    6.25000000E-02  6.25000000E-02  6.25000000E-02
              1.87500000E-01  6.25000000E-02  6.25000000E-02
              3.12500000E-01  6.25000000E-02  6.25000000E-02
              4.37500000E-01  6.25000000E-02  6.25000000E-02
              1.87500000E-01  1.87500000E-01  6.25000000E-02
              3.12500000E-01  1.87500000E-01  6.25000000E-02
              4.37500000E-01  1.87500000E-01  6.25000000E-02
              3.12500000E-01  3.12500000E-01  6.25000000E-02
              4.37500000E-01  3.12500000E-01  6.25000000E-02
              4.37500000E-01  4.37500000E-01  6.25000000E-02
              6.25000000E-02  6.25000000E-02  1.87500000E-01
              1.87500000E-01  6.25000000E-02  1.87500000E-01
              3.12500000E-01  6.25000000E-02  1.87500000E-01
              4.37500000E-01  6.25000000E-02  1.87500000E-01
              1.87500000E-01  1.87500000E-01  1.87500000E-01
              3.12500000E-01  1.87500000E-01  1.87500000E-01
              4.37500000E-01  1.87500000E-01  1.87500000E-01
              3.12500000E-01  3.12500000E-01  1.87500000E-01
              4.37500000E-01  3.12500000E-01  1.87500000E-01
              4.37500000E-01  4.37500000E-01  1.87500000E-01
              6.25000000E-02  6.25000000E-02  3.12500000E-01
              1.87500000E-01  6.25000000E-02  3.12500000E-01
              3.12500000E-01  6.25000000E-02  3.12500000E-01
              4.37500000E-01  6.25000000E-02  3.12500000E-01
              1.87500000E-01  1.87500000E-01  3.12500000E-01
              3.12500000E-01  1.87500000E-01  3.12500000E-01
              4.37500000E-01  1.87500000E-01  3.12500000E-01
              3.12500000E-01  3.12500000E-01  3.12500000E-01
              4.37500000E-01  3.12500000E-01  3.12500000E-01
              4.37500000E-01  4.37500000E-01  3.12500000E-01
              6.25000000E-02  6.25000000E-02  4.37500000E-01
              1.87500000E-01  6.25000000E-02  4.37500000E-01
              3.12500000E-01  6.25000000E-02  4.37500000E-01
              4.37500000E-01  6.25000000E-02  4.37500000E-01
              1.87500000E-01  1.87500000E-01  4.37500000E-01
              3.12500000E-01  1.87500000E-01  4.37500000E-01
              4.37500000E-01  1.87500000E-01  4.37500000E-01
              3.12500000E-01  3.12500000E-01  4.37500000E-01
              4.37500000E-01  3.12500000E-01  4.37500000E-01
              4.37500000E-01  4.37500000E-01  4.37500000E-01
   kptrlen    5.95088961E+01
    kptopt         1
  kptrlatt    8  0  0   0  8  0   0  0  8
P    mkmem        10
     natom         5
     nband        21
     ngfft        50      50      50
      nkpt        40
     nstep        45
      nsym         8
     ntime        20
    ntypat         3
       occ    2.000000  2.000000  2.000000  2.000000  2.000000  2.000000
              2.000000  2.000000  2.000000  2.000000  2.000000  2.000000
              2.000000  2.000000  2.000000  2.000000  2.000000  2.000000
              2.000000  2.000000  0.000000
   optcell         2
    prtden         0
     prtwf         0
    shiftk    5.00000000E-01  5.00000000E-01  5.00000000E-01
   spgroup        99
    strten   -1.8489353392E-07 -1.8489353392E-07 -6.1670115910E-08
              0.0000000000E+00  0.0000000000E+00  0.0000000000E+00
    symrel    1  0  0   0  1  0   0  0  1       1  0  0   0 -1  0   0  0  1
             -1  0  0   0 -1  0   0  0  1      -1  0  0   0  1  0   0  0  1
              0  1  0   1  0  0   0  0  1       0  1  0  -1  0  0   0  0  1
              0 -1  0  -1  0  0   0  0  1       0 -1  0   1  0  0   0  0  1
    toldff    5.00000000E-07
     typat    1  2  3  3  3
       wtk      0.01563    0.03125    0.03125    0.03125    0.01563    0.03125
                0.03125    0.01563    0.03125    0.01563    0.01563    0.03125
                0.03125    0.03125    0.01563    0.03125    0.03125    0.01563
                0.03125    0.01563    0.01563    0.03125    0.03125    0.03125
                0.01563    0.03125    0.03125    0.01563    0.03125    0.01563
                0.01563    0.03125    0.03125    0.03125    0.01563    0.03125
                0.03125    0.01563    0.03125    0.01563
    xangst    0.0000000000E+00  0.0000000000E+00  1.2967341935E-02
              1.9684654955E+00  1.9684654955E+00  2.0129767588E+00
              0.0000000000E+00  1.9684654955E+00  1.9602254296E+00
              1.9684654955E+00  0.0000000000E+00  1.9602254296E+00
              1.9684654955E+00  1.9684654955E+00 -2.4427417018E-02
     xcart    0.0000000000E+00  0.0000000000E+00  2.4504724929E-02
              3.7198606885E+00  3.7198606885E+00  3.8039747860E+00
              0.0000000000E+00  3.7198606885E+00  3.7042892206E+00
              3.7198606885E+00  0.0000000000E+00  3.7042892206E+00
              3.7198606885E+00  3.7198606885E+00 -4.6161128298E-02
      xred    0.0000000000E+00  0.0000000000E+00  3.2845524333E-03
              5.0000000000E-01  5.0000000000E-01  5.0987532714E-01
              0.0000000000E+00  5.0000000000E-01  4.9651372167E-01
              5.0000000000E-01  0.0000000000E+00  4.9651372167E-01
              5.0000000000E-01  5.0000000000E-01 -6.1873229230E-03
     znucl     56.00000   22.00000    8.00000

================================================================================


- Timing analysis has been suppressed with timopt=0


-
- Proc.   0 individual time (sec): cpu=       3049.8  wall=       3049.9

================================================================================

 Calculation completed.
.Delivered    0 WARNINGs and   7 COMMENTs to log file.
+Overall time at end (sec) : cpu=      12199.4  wall=      12199.4
