
.Version 5.6.4  of ABINIT 
.(MPI version, prepared for a x86_64_linux_gcc4.3 computer) 

.Copyright (C) 1998-2008 ABINIT group . 
 ABINIT comes with ABSOLUTELY NO WARRANTY.
 It is free software, and you are welcome to redistribute it
 under certain conditions (GNU General Public License,
 see ~abinit/COPYING or http://www.gnu.org/copyleft/gpl.txt).

 ABINIT is a project of the Universite Catholique de Louvain,
 Corning Inc. and other collaborators, see ~abinit/doc/developers/contributors.txt .
 Please read ~abinit/doc/users/acknowledgments.html for suggested
 acknowledgments of the ABINIT effort.
 For more information, see http://www.abinit.org .

.Starting date : Tue 20 Jan 2009.
  
- input  file    -> perovskite-optcell0-000.in
- output file    -> perovskite-optcell0-000.out
- root for input  files -> perovskite-optcell0-000_i
- root for output files -> perovskite-optcell0-000_o


 Symmetries : space group Pm -3 m (#221); Bravais cP (primitive cubic)
================================================================================
 Values of the parameters that define the memory need of the present run
   intxc =         0  ionmov =         0    iscf =         7 xclevel =         1
  lmnmax =         4   lnmax =         4   mband =        21  mffmem =         1
P  mgfft =        45   mkmem =         5 mpssoang=         3     mpw =      5588
  mqgrid =      3001   natom =         5    nfft =     91125    nkpt =        20
  nloalg =         4  nspden =         1 nspinor =         1  nsppol =         1
    nsym =        48  n1xccc =         0  ntypat =         3  occopt =         1
================================================================================
P This job should need less than                      37.305 Mbytes of memory.
  Rough estimation (10% accuracy) of disk space for files :
  WF disk file :     35.814 Mbytes ; DEN or POT disk file :      0.697 Mbytes.
================================================================================

 -outvars: echo values of preprocessed input variables --------
     acell    7.4434230817E+00  7.4434230817E+00  7.4434230817E+00 Bohr
       amu    1.37327000E+02  4.78800000E+01  1.59994000E+01
    diemac    1.20000000E+01
      ecut    4.30000000E+01 Hartree
    ecutsm    3.00000000E+00 Hartree
       ixc         3
       kpt    6.25000000E-02  6.25000000E-02  6.25000000E-02
              1.87500000E-01  6.25000000E-02  6.25000000E-02
              3.12500000E-01  6.25000000E-02  6.25000000E-02
              4.37500000E-01  6.25000000E-02  6.25000000E-02
              1.87500000E-01  1.87500000E-01  6.25000000E-02
              3.12500000E-01  1.87500000E-01  6.25000000E-02
              4.37500000E-01  1.87500000E-01  6.25000000E-02
              3.12500000E-01  3.12500000E-01  6.25000000E-02
              4.37500000E-01  3.12500000E-01  6.25000000E-02
              4.37500000E-01  4.37500000E-01  6.25000000E-02
              1.87500000E-01  1.87500000E-01  1.87500000E-01
              3.12500000E-01  1.87500000E-01  1.87500000E-01
              4.37500000E-01  1.87500000E-01  1.87500000E-01
              3.12500000E-01  3.12500000E-01  1.87500000E-01
              4.37500000E-01  3.12500000E-01  1.87500000E-01
              4.37500000E-01  4.37500000E-01  1.87500000E-01
              3.12500000E-01  3.12500000E-01  3.12500000E-01
              4.37500000E-01  3.12500000E-01  3.12500000E-01
              4.37500000E-01  4.37500000E-01  3.12500000E-01
              4.37500000E-01  4.37500000E-01  4.37500000E-01
   kptrlen    5.95473847E+01
    kptopt         1
  kptrlatt    8  0  0   0  8  0   0  0  8
P    mkmem         5
     natom         5
     nband        21
     ngfft        45      45      45
      nkpt        20
     nstep        45
      nsym        48
    ntypat         3
       occ    2.000000  2.000000  2.000000  2.000000  2.000000  2.000000
              2.000000  2.000000  2.000000  2.000000  2.000000  2.000000
              2.000000  2.000000  2.000000  2.000000  2.000000  2.000000
              2.000000  2.000000  0.000000
    prtden         0
     prtwf         0
    shiftk    5.00000000E-01  5.00000000E-01  5.00000000E-01
   spgroup       221
    symrel    1  0  0   0  1  0   0  0  1      -1  0  0   0 -1  0   0  0 -1
             -1  0  0   0  1  0   0  0 -1       1  0  0   0 -1  0   0  0  1
             -1  0  0   0 -1  0   0  0  1       1  0  0   0  1  0   0  0 -1
              1  0  0   0 -1  0   0  0 -1      -1  0  0   0  1  0   0  0  1
              0  1  0   1  0  0   0  0  1       0 -1  0  -1  0  0   0  0 -1
              0 -1  0   1  0  0   0  0 -1       0  1  0  -1  0  0   0  0  1
              0 -1  0  -1  0  0   0  0  1       0  1  0   1  0  0   0  0 -1
              0  1  0  -1  0  0   0  0 -1       0 -1  0   1  0  0   0  0  1
              0  0  1   1  0  0   0  1  0       0  0 -1  -1  0  0   0 -1  0
              0  0 -1   1  0  0   0 -1  0       0  0  1  -1  0  0   0  1  0
              0  0 -1  -1  0  0   0  1  0       0  0  1   1  0  0   0 -1  0
              0  0  1  -1  0  0   0 -1  0       0  0 -1   1  0  0   0  1  0
              1  0  0   0  0  1   0  1  0      -1  0  0   0  0 -1   0 -1  0
             -1  0  0   0  0  1   0 -1  0       1  0  0   0  0 -1   0  1  0
             -1  0  0   0  0 -1   0  1  0       1  0  0   0  0  1   0 -1  0
              1  0  0   0  0 -1   0 -1  0      -1  0  0   0  0  1   0  1  0
              0  1  0   0  0  1   1  0  0       0 -1  0   0  0 -1  -1  0  0
              0 -1  0   0  0  1  -1  0  0       0  1  0   0  0 -1   1  0  0
              0 -1  0   0  0 -1   1  0  0       0  1  0   0  0  1  -1  0  0
              0  1  0   0  0 -1  -1  0  0       0 -1  0   0  0  1   1  0  0
              0  0  1   0  1  0   1  0  0       0  0 -1   0 -1  0  -1  0  0
              0  0 -1   0  1  0  -1  0  0       0  0  1   0 -1  0   1  0  0
              0  0 -1   0 -1  0   1  0  0       0  0  1   0  1  0  -1  0  0
              0  0  1   0 -1  0  -1  0  0       0  0 -1   0  1  0   1  0  0
    toldfe    1.00000000E-10 Hartree
     typat    1  2  3  3  3
       wtk      0.01563    0.04688    0.04688    0.04688    0.04688    0.09375
                0.09375    0.04688    0.09375    0.04688    0.01563    0.04688
                0.04688    0.04688    0.09375    0.04688    0.01563    0.04688
                0.04688    0.01563
    xangst    0.0000000000E+00  0.0000000000E+00  0.0000000000E+00
              1.9694449244E+00  1.9694449244E+00  1.9694449244E+00
              0.0000000000E+00  1.9694449244E+00  1.9694449244E+00
              1.9694449244E+00  0.0000000000E+00  1.9694449244E+00
              1.9694449244E+00  1.9694449244E+00  0.0000000000E+00
     xcart    0.0000000000E+00  0.0000000000E+00  0.0000000000E+00
              3.7217115408E+00  3.7217115408E+00  3.7217115408E+00
              0.0000000000E+00  3.7217115408E+00  3.7217115408E+00
              3.7217115408E+00  0.0000000000E+00  3.7217115408E+00
              3.7217115408E+00  3.7217115408E+00  0.0000000000E+00
      xred    0.0000000000E+00  0.0000000000E+00  0.0000000000E+00
              5.0000000000E-01  5.0000000000E-01  5.0000000000E-01
              0.0000000000E+00  5.0000000000E-01  5.0000000000E-01
              5.0000000000E-01  0.0000000000E+00  5.0000000000E-01
              5.0000000000E-01  5.0000000000E-01  0.0000000000E+00
     znucl     56.00000   22.00000    8.00000

================================================================================

 chkinp: Checking input parameters for consistency.

================================================================================
== DATASET  1 ==================================================================

 Real(R)+Recip(G) space primitive vectors, cartesian coordinates (Bohr,Bohr^-1):
 R(1)=  7.4434231  0.0000000  0.0000000  G(1)=  0.1343468  0.0000000  0.0000000
 R(2)=  0.0000000  7.4434231  0.0000000  G(2)=  0.0000000  0.1343468  0.0000000
 R(3)=  0.0000000  0.0000000  7.4434231  G(3)=  0.0000000  0.0000000  0.1343468
 Unit cell volume ucvol=  4.1239949E+02 bohr^3
 Angles (23,13,12)=  9.00000000E+01  9.00000000E+01  9.00000000E+01 degrees

 getcut: wavevector=  0.0000  0.0000  0.0000  ngfft=  45  45  45
         ecut(hartree)=     43.000   => boxcut(ratio)=   2.00254

--- Pseudopotential description ------------------------------------------------
- pspini: atom type   1  psp file is 56ba.psp.mod
- pspatm: opening atomic psp file    56ba.psp.mod
 Barium.ion 5s2.5p6.6s0.5d0 rcs=rcp=rcd=1.7 ecut=22/28
  56.00000  10.00000    940000                znucl, zion, pspdat
    4    3    2    2      2001   0.00000      pspcod,pspxc,lmax,lloc,mmax,r2well
    0   0.000   0.000    2   1.6965489        l,e99.0,e99.9,nproj,rcpsp
   0.00000000   0.00000000   0.00000000   0.00000000     rms, ekb1, ekb2, epsatm
    1   0.000   0.000    2   1.6965489        l,e99.0,e99.9,nproj,rcpsp
   0.00000000   0.00000000   0.00000000   0.00000000     rms, ekb1, ekb2, epsatm
    2   0.000   0.000    0   1.6965489        l,e99.0,e99.9,nproj,rcpsp
   0.00000000   0.00000000   0.00000000   0.00000000     rms, ekb1, ekb2, epsatm
    0.00000000000000    0.00000000000000    0.00000000000000   rchrg,fchrg,qchrg
 pspatm: epsatm=   43.25917021
         --- l  ekb(1:nproj) -->
             0   -9.646692   27.266828
             1   -6.938476   21.148499
 pspatm: atomic psp has been read  and splines computed

- pspini: atom type   2  psp file is 22ti.psp.mod
- pspatm: opening atomic psp file    22ti.psp.mod
 Titane.ion 3s2.3p6.4s0.3d2 rcd=1.65, rcs=rc0=1.25, ecut 32/54
  22.00000  12.00000    940000                znucl, zion, pspdat
    4    3    2    2      2001   0.00000      pspcod,pspxc,lmax,lloc,mmax,r2well
    0   0.000   0.000    2   1.2533577        l,e99.0,e99.9,nproj,rcpsp
   0.00000000   0.00000000   0.00000000   0.00000000     rms, ekb1, ekb2, epsatm
    1   0.000   0.000    2   1.2533577        l,e99.0,e99.9,nproj,rcpsp
   0.00000000   0.00000000   0.00000000   0.00000000     rms, ekb1, ekb2, epsatm
    2   0.000   0.000    0   1.6491622        l,e99.0,e99.9,nproj,rcpsp
   0.00000000   0.00000000   0.00000000   0.00000000     rms, ekb1, ekb2, epsatm
    0.00000000000000    0.00000000000000    0.00000000000000   rchrg,fchrg,qchrg
 pspatm: epsatm=    4.67708954
         --- l  ekb(1:nproj) -->
             0    9.517316   -2.344682
             1    5.011406   -0.741179
 pspatm: atomic psp has been read  and splines computed

- pspini: atom type   3  psp file is 8o.phoney.mod
- pspatm: opening atomic psp file    8o.phoney.mod
 Compromise psp for oxygen with rc=1.5 ec=25 double reference
   8.00000   6.00000    980710                znucl, zion, pspdat
    5    3    1    1       600   0.00000      pspcod,pspxc,lmax,lloc,mmax,r2well
    1.000000E-06    3.075239E-02              r1 and al (Hamman grid)
    0   0.000   0.000    2   1.4915765        l,e99.0,e99.9,nproj,rcpsp
   0.00000000   0.00000000   0.00000000   0.00000000     rms, ekb1, ekb2, epsatm
    1   0.000   0.000    0   1.4915765        l,e99.0,e99.9,nproj,rcpsp
   0.00000000   0.00000000   0.00000000   0.00000000     rms, ekb1, ekb2, epsatm
    0.00000000000000    0.00000000000000    0.00000000000000   rchrg,fchrg,qchrg
 pspatm: epsatm=    1.43569736
         --- l  ekb(1:nproj) -->
             0    5.763361   -1.798421
 pspatm: atomic psp has been read  and splines computed

   2.08973407E+03                                ecore*ucvol(ha*bohr**3)
--------------------------------------------------------------------------------

P newkpt: treating     21 bands with npw=    5539 for ikpt=   1 by node    0
P newkpt: treating     21 bands with npw=    5551 for ikpt=   2 by node    0
P newkpt: treating     21 bands with npw=    5559 for ikpt=   3 by node    0
P newkpt: treating     21 bands with npw=    5536 for ikpt=   4 by node    0
P newkpt: treating     21 bands with npw=    5537 for ikpt=   5 by node    0
P newkpt: treating     21 bands with npw=    5543 for ikpt=   6 by node    1
P newkpt: treating     21 bands with npw=    5545 for ikpt=   7 by node    1
P newkpt: treating     21 bands with npw=    5537 for ikpt=   8 by node    1
P newkpt: treating     21 bands with npw=    5547 for ikpt=   9 by node    1
P newkpt: treating     21 bands with npw=    5545 for ikpt=  10 by node    1
P newkpt: treating     21 bands with npw=    5533 for ikpt=  11 by node    2
P newkpt: treating     21 bands with npw=    5555 for ikpt=  12 by node    2
P newkpt: treating     21 bands with npw=    5569 for ikpt=  13 by node    2
P newkpt: treating     21 bands with npw=    5558 for ikpt=  14 by node    2
P newkpt: treating     21 bands with npw=    5553 for ikpt=  15 by node    2
P newkpt: treating     21 bands with npw=    5565 for ikpt=  16 by node    3
P newkpt: treating     21 bands with npw=    5578 for ikpt=  17 by node    3
P newkpt: treating     21 bands with npw=    5582 for ikpt=  18 by node    3
P newkpt: treating     21 bands with npw=    5588 for ikpt=  19 by node    3
P newkpt: treating     21 bands with npw=    5565 for ikpt=  20 by node    3

 setup2: Arith. and geom. avg. npw (full set) are    5552.953    5552.935

================================================================================

     iter   Etot(hartree)      deltaE(h)  residm     vres2    diffor    maxfor
 ETOT  1  -130.87391265121    -1.309E+02 5.438E-01 1.161E+03 0.000E+00 0.000E+00
 ETOT  2  -131.79753648134    -9.236E-01 1.518E-01 2.909E+02 0.000E+00 0.000E+00
 ETOT  3  -131.83562917222    -3.809E-02 4.515E-02 7.086E+00 0.000E+00 0.000E+00
 ETOT  4  -131.83931028328    -3.681E-03 1.458E-02 7.233E+00 0.000E+00 0.000E+00
 ETOT  5  -131.84109690034    -1.787E-03 4.582E-03 2.195E+00 0.000E+00 0.000E+00
 ETOT  6  -131.84235200753    -1.255E-03 4.274E-03 2.785E-01 0.000E+00 0.000E+00
 ETOT  7  -131.84264321331    -2.912E-04 3.732E-03 1.619E-01 0.000E+00 0.000E+00
 ETOT  8  -131.84277718701    -1.340E-04 2.755E-03 1.067E-02 0.000E+00 0.000E+00
 ETOT  9  -131.84281517959    -3.799E-05 3.335E-03 2.016E-02 0.000E+00 0.000E+00
 ETOT 10  -131.84283916748    -2.399E-05 2.206E-03 6.404E-05 0.000E+00 0.000E+00
 ETOT 11  -131.84284519431    -6.027E-06 1.655E-03 3.335E-03 0.000E+00 0.000E+00
 ETOT 12  -131.84284946136    -4.267E-06 1.512E-03 9.705E-05 0.000E+00 0.000E+00
 ETOT 13  -131.84285058680    -1.125E-06 1.727E-03 7.217E-04 0.000E+00 0.000E+00
 ETOT 14  -131.84285142161    -8.348E-07 9.920E-04 1.690E-04 0.000E+00 0.000E+00
 ETOT 15  -131.84285172585    -3.042E-07 1.092E-03 3.788E-05 0.000E+00 0.000E+00
 ETOT 16  -131.84285184970    -1.238E-07 5.754E-04 8.395E-05 0.000E+00 0.000E+00
 ETOT 17  -131.84285190866    -5.896E-08 6.957E-04 7.148E-05 0.000E+00 0.000E+00
 ETOT 18  -131.84285195443    -4.578E-08 5.937E-04 6.773E-06 0.000E+00 0.000E+00
 ETOT 19  -131.84285197091    -1.647E-08 4.987E-04 1.174E-06 0.000E+00 0.000E+00
 ETOT 20  -131.84285197848    -7.575E-09 6.079E-04 6.341E-07 0.000E+00 0.000E+00
 ETOT 21  -131.84285198231    -3.826E-09 5.199E-04 2.077E-07 0.000E+00 0.000E+00
 ETOT 22  -131.84285198398    -1.668E-09 6.142E-04 1.315E-06 0.000E+00 0.000E+00
 ETOT 23  -131.84285198527    -1.291E-09 5.335E-04 4.941E-09 0.000E+00 0.000E+00
 ETOT 24  -131.84285198582    -5.493E-10 6.110E-04 2.508E-08 0.000E+00 0.000E+00
 ETOT 25  -131.84285198612    -3.028E-10 5.378E-04 2.025E-08 0.000E+00 0.000E+00
 ETOT 26  -131.84285198628    -1.610E-10 5.974E-04 1.153E-08 0.000E+00 0.000E+00
 ETOT 27  -131.84285198637    -9.516E-11 5.322E-04 9.257E-09 0.000E+00 0.000E+00
 ETOT 28  -131.84285198642    -4.715E-11 5.738E-04 8.335E-09 0.000E+00 0.000E+00

 At SCF step   28, etot is converged :
  for the second time, diff in etot=  4.715E-11 < toldfe=  1.000E-10

 Cartesian components of stress tensor (hartree/bohr^3)
  sigma(1 1)=  3.10703562E-08  sigma(3 2)=  0.00000000E+00
  sigma(2 2)=  3.10703562E-08  sigma(3 1)=  0.00000000E+00
  sigma(3 3)=  3.10703562E-08  sigma(2 1)=  0.00000000E+00

================================================================================

 ----iterations are completed or convergence reached----

 Mean square residual over all n,k,spin=   3.0376E-06; max=  5.7377E-04
   0.0625  0.0625  0.0625    1  1.39788E-06 kpt; spin; max resid(k); each band:
 5.69E-16 1.60E-15 1.55E-15 1.55E-15 2.36E-15 3.56E-15 7.04E-16 7.06E-16
 5.18E-15 5.19E-15 4.91E-15 8.35E-15 9.63E-15 1.50E-14 4.71E-13 4.01E-12
 9.42E-12 5.63E-10 1.15E-12 1.04E-09 1.40E-06
   0.1875  0.0625  0.0625    1  1.37182E-05 kpt; spin; max resid(k); each band:
 6.54E-16 1.47E-15 1.56E-15 1.54E-15 2.10E-15 4.83E-15 5.14E-16 1.40E-15
 5.40E-15 4.70E-15 5.31E-15 8.07E-15 5.99E-15 8.33E-15 6.29E-15 5.64E-15
 3.26E-14 3.29E-13 1.73E-11 7.69E-13 1.37E-05
   0.3125  0.0625  0.0625    1  1.69609E-05 kpt; spin; max resid(k); each band:
 7.29E-16 1.39E-15 1.53E-15 1.52E-15 1.69E-15 6.50E-15 2.97E-16 2.22E-15
 3.99E-15 4.68E-15 6.68E-15 6.02E-15 8.33E-15 6.34E-15 7.55E-15 1.03E-14
 1.48E-14 1.17E-14 1.72E-13 1.98E-13 1.70E-05
   0.4375  0.0625  0.0625    1  7.58904E-08 kpt; spin; max resid(k); each band:
 7.49E-16 1.48E-15 1.51E-15 1.50E-15 1.36E-15 7.46E-15 1.69E-16 2.65E-15
 3.41E-15 3.46E-15 8.07E-15 3.74E-15 4.85E-15 3.50E-15 4.87E-15 9.54E-15
 8.32E-15 6.74E-15 5.41E-15 8.79E-15 7.59E-08
   0.1875  0.1875  0.0625    1  3.32291E-05 kpt; spin; max resid(k); each band:
 7.44E-16 1.47E-15 1.35E-15 1.54E-15 1.83E-15 5.27E-15 2.37E-15 6.75E-16
 6.43E-15 4.51E-15 4.90E-15 7.83E-15 7.63E-15 7.75E-15 1.11E-14 4.09E-15
 1.61E-14 1.95E-13 5.86E-12 1.58E-11 3.32E-05
   0.3125  0.1875  0.0625    1  1.35343E-05 kpt; spin; max resid(k); each band:
 8.23E-16 1.33E-15 1.36E-15 1.51E-15 1.42E-15 6.17E-15 1.73E-15 2.43E-15
 6.26E-15 4.63E-15 5.35E-15 5.19E-15 7.63E-15 6.07E-15 8.35E-15 7.13E-15
 9.33E-15 1.61E-14 3.57E-14 1.03E-14 1.35E-05
   0.4375  0.1875  0.0625    1  1.60451E-05 kpt; spin; max resid(k); each band:
 8.46E-16 1.38E-15 1.30E-15 1.49E-15 1.11E-15 6.93E-15 8.66E-16 3.73E-15
 4.89E-15 5.21E-15 6.30E-15 4.16E-15 5.90E-15 6.57E-15 4.56E-15 9.35E-15
 6.73E-15 7.63E-15 8.65E-15 2.79E-14 1.60E-05
   0.3125  0.3125  0.0625    1  5.05781E-05 kpt; spin; max resid(k); each band:
 9.06E-16 1.27E-15 1.17E-15 1.49E-15 1.03E-15 5.44E-15 4.81E-15 1.54E-15
 8.11E-15 4.77E-15 4.40E-15 4.54E-15 4.71E-15 6.22E-15 7.86E-15 5.21E-15
 7.17E-15 7.93E-15 1.00E-14 2.02E-14 5.06E-05
   0.4375  0.3125  0.0625    1  5.73774E-04 kpt; spin; max resid(k); each band:
 9.36E-16 1.30E-15 1.15E-15 1.46E-15 7.45E-16 5.21E-15 3.58E-15 4.31E-15
 7.46E-15 7.81E-15 2.54E-15 3.88E-15 5.81E-15 5.00E-15 4.90E-15 4.06E-15
 4.17E-15 9.17E-15 1.46E-14 2.09E-14 5.74E-04
   0.4375  0.4375  0.0625    1  1.08982E-04 kpt; spin; max resid(k); each band:
 9.80E-16 1.21E-15 1.13E-15 1.44E-15 4.71E-16 2.30E-15 6.50E-15 5.05E-15
 9.12E-15 8.64E-15 1.07E-15 3.48E-15 5.22E-15 2.43E-15 3.76E-15 2.96E-15
 2.93E-15 7.56E-15 7.28E-15 5.79E-14 1.09E-04
   0.1875  0.1875  0.1875    1  1.29655E-06 kpt; spin; max resid(k); each band:
 8.43E-16 1.47E-15 1.33E-15 1.32E-15 1.57E-15 5.59E-15 1.88E-15 1.87E-15
 6.02E-15 6.02E-15 4.41E-15 5.03E-15 7.38E-15 6.71E-15 9.81E-15 7.06E-15
 2.82E-15 9.69E-15 7.60E-13 9.32E-13 1.30E-06
   0.3125  0.1875  0.1875    1  2.36143E-04 kpt; spin; max resid(k); each band:
 9.28E-16 1.27E-15 1.35E-15 1.29E-15 1.19E-15 6.08E-15 1.17E-15 3.24E-15
 5.36E-15 7.10E-15 4.66E-15 4.17E-15 5.88E-15 5.79E-15 8.17E-15 9.90E-15
 6.13E-15 1.94E-14 5.75E-15 1.40E-14 2.36E-04
   0.4375  0.1875  0.1875    1  4.39598E-07 kpt; spin; max resid(k); each band:
 9.50E-16 1.30E-15 1.29E-15 1.27E-15 9.01E-16 6.59E-15 6.88E-16 4.06E-15
 4.84E-15 7.91E-15 4.76E-15 3.75E-15 5.23E-15 7.73E-15 5.21E-15 1.25E-14
 5.96E-15 3.67E-15 8.03E-15 1.36E-14 4.40E-07
   0.3125  0.3125  0.1875    1  6.01241E-06 kpt; spin; max resid(k); each band:
 1.01E-15 1.20E-15 1.14E-15 1.27E-15 8.43E-16 5.58E-15 3.85E-15 1.54E-15
 5.74E-15 7.68E-15 5.03E-15 4.23E-15 4.60E-15 5.72E-15 1.01E-14 8.09E-15
 8.36E-15 1.06E-14 1.37E-14 1.34E-14 6.01E-06
   0.4375  0.3125  0.1875    1  1.30738E-04 kpt; spin; max resid(k); each band:
 1.04E-15 1.21E-15 1.11E-15 1.24E-15 5.89E-16 5.22E-15 2.58E-15 3.59E-15
 6.05E-15 8.18E-15 5.21E-15 3.73E-15 8.69E-15 7.93E-15 7.73E-15 7.22E-15
 5.82E-15 1.17E-14 5.07E-15 7.34E-15 1.31E-04
   0.4375  0.4375  0.1875    1  3.21043E-05 kpt; spin; max resid(k); each band:
 1.09E-15 1.19E-15 1.03E-15 1.20E-15 3.61E-16 2.51E-15 5.28E-15 3.85E-15
 7.46E-15 8.68E-15 4.72E-15 2.99E-15 2.48E-15 8.95E-15 8.13E-15 7.87E-15
 6.92E-15 8.36E-15 7.83E-15 8.59E-14 3.21E-05
   0.3125  0.3125  0.3125    1  2.98464E-07 kpt; spin; max resid(k); each band:
 1.10E-15 1.10E-15 1.11E-15 1.09E-15 5.62E-16 5.37E-15 2.38E-15 2.31E-15
 6.96E-15 6.94E-15 6.16E-15 4.99E-15 4.54E-15 4.44E-15 8.72E-15 1.02E-14
 9.04E-15 1.22E-14 1.02E-14 1.13E-15 2.98E-07
   0.4375  0.3125  0.3125    1  7.78095E-06 kpt; spin; max resid(k); each band:
 1.14E-15 1.19E-15 1.03E-15 1.06E-15 3.61E-16 4.61E-15 3.63E-15 1.13E-15
 6.31E-15 7.87E-15 6.66E-15 2.86E-15 4.77E-15 4.56E-15 9.11E-15 9.25E-15
 1.28E-14 9.84E-15 9.89E-15 3.53E-15 7.78E-06
   0.4375  0.4375  0.3125    1  3.26994E-05 kpt; spin; max resid(k); each band:
 1.20E-15 1.16E-15 9.67E-16 1.01E-15 1.92E-16 2.67E-15 3.17E-15 2.03E-15
 6.91E-15 7.84E-15 6.88E-15 2.48E-15 2.23E-15 3.69E-15 1.03E-14 9.71E-15
 8.49E-15 8.24E-15 8.11E-15 1.78E-15 3.27E-05
   0.4375  0.4375  0.4375    1  4.44455E-13 kpt; spin; max resid(k); each band:
 1.25E-15 9.15E-16 1.10E-15 9.15E-16 6.04E-17 2.37E-15 1.31E-15 1.31E-15
 7.15E-15 7.13E-15 7.27E-15 2.22E-15 2.56E-15 1.67E-15 1.16E-14 1.20E-14
 1.41E-14 7.25E-15 7.19E-15 4.11E-16 4.44E-13
 reduced coordinates (array xred) for    5 atoms
       0.000000000000      0.000000000000      0.000000000000
       0.500000000000      0.500000000000      0.500000000000
       0.000000000000      0.500000000000      0.500000000000
       0.500000000000      0.000000000000      0.500000000000
       0.500000000000      0.500000000000      0.000000000000
 rms dE/dt=  0.0000E+00; max dE/dt=  0.0000E+00; dE/dt below (all hartree)
    1       0.000000000000      0.000000000000      0.000000000000
    2       0.000000000000      0.000000000000      0.000000000000
    3       0.000000000000      0.000000000000      0.000000000000
    4       0.000000000000      0.000000000000      0.000000000000
    5       0.000000000000      0.000000000000      0.000000000000

 cartesian coordinates (angstrom) at end:
    1      0.00000000000000     0.00000000000000     0.00000000000000
    2      1.96944492436419     1.96944492436419     1.96944492436419
    3      0.00000000000000     1.96944492436419     1.96944492436419
    4      1.96944492436419     0.00000000000000     1.96944492436419
    5      1.96944492436419     1.96944492436419     0.00000000000000

 cartesian forces (hartree/bohr) at end:
    1     -0.00000000000000    -0.00000000000000    -0.00000000000000
    2     -0.00000000000000    -0.00000000000000    -0.00000000000000
    3     -0.00000000000000    -0.00000000000000    -0.00000000000000
    4     -0.00000000000000    -0.00000000000000    -0.00000000000000
    5     -0.00000000000000    -0.00000000000000    -0.00000000000000
 frms,max,avg= 0.0000000E+00 0.0000000E+00   0.000E+00  0.000E+00  0.000E+00 h/b

 cartesian forces (eV/Angstrom) at end:
    1     -0.00000000000000    -0.00000000000000    -0.00000000000000
    2     -0.00000000000000    -0.00000000000000    -0.00000000000000
    3     -0.00000000000000    -0.00000000000000    -0.00000000000000
    4     -0.00000000000000    -0.00000000000000    -0.00000000000000
    5     -0.00000000000000    -0.00000000000000    -0.00000000000000
 frms,max,avg= 0.0000000E+00 0.0000000E+00   0.000E+00  0.000E+00  0.000E+00 e/A
 length scales=  7.443423081700  7.443423081700  7.443423081700 bohr
              =  3.938889848728  3.938889848728  3.938889848728 angstroms
 prteigrs : about to open file perovskite-optcell0-000_o_EIG
 Fermi (or HOMO) energy (hartree) =   0.26783   Average Vxc (hartree)=  -0.43866
 Eigenvalues (hartree) for nkpt=  20  k points:
 kpt#   1, nband= 21, wtk=  0.01563, kpt=  0.0625  0.0625  0.0625 (reduced coord)
  -1.77871  -0.91844  -0.91843  -0.91843  -0.63539  -0.34183  -0.31543  -0.31543
  -0.09011  -0.09011  -0.08699   0.17939   0.18409   0.18409   0.21755   0.21755
   0.22745   0.25523   0.26231   0.26231   0.34324
 kpt#   2, nband= 21, wtk=  0.04688, kpt=  0.1875  0.0625  0.0625 (reduced coord)
  -1.77869  -0.91915  -0.91840  -0.91840  -0.63391  -0.34332  -0.31491  -0.31379
  -0.08877  -0.08859  -0.08125   0.16185   0.17850   0.17989   0.20298   0.20664
   0.22376   0.23433   0.25457   0.25484   0.34438
 kpt#   3, nband= 21, wtk=  0.04688, kpt=  0.3125  0.0625  0.0625 (reduced coord)
  -1.77867  -0.92015  -0.91836  -0.91835  -0.63175  -0.34811  -0.31416  -0.30806
  -0.08638  -0.08500  -0.07512   0.13687   0.16940   0.17125   0.19111   0.19259
   0.21492   0.21907   0.24499   0.24617   0.34676
 kpt#   4, nband= 21, wtk=  0.04688, kpt=  0.4375  0.0625  0.0625 (reduced coord)
  -1.77865  -0.92087  -0.91833  -0.91832  -0.63020  -0.35240  -0.31363  -0.30258
  -0.08477  -0.08164  -0.07158   0.11946   0.16322   0.16444   0.17829   0.18710
   0.20952   0.21567   0.23785   0.24080   0.34845
 kpt#   5, nband= 21, wtk=  0.04688, kpt=  0.1875  0.1875  0.0625 (reduced coord)
  -1.77867  -0.91913  -0.91910  -0.91837  -0.63257  -0.34229  -0.31465  -0.31330
  -0.09034  -0.08748  -0.07633   0.15097   0.16897   0.17633   0.18751   0.19716
   0.21900   0.23016   0.24575   0.25218   0.36257
 kpt#   6, nband= 21, wtk=  0.09375, kpt=  0.3125  0.1875  0.0625 (reduced coord)
  -1.77865  -0.92011  -0.91906  -0.91833  -0.63064  -0.34390  -0.31350  -0.30977
  -0.08939  -0.08491  -0.07395   0.13241   0.15768   0.16588   0.17395   0.18804
   0.21108   0.22846   0.23558   0.24790   0.36592
 kpt#   7, nband= 21, wtk=  0.09375, kpt=  0.4375  0.1875  0.0625 (reduced coord)
  -1.77863  -0.92082  -0.91902  -0.91830  -0.62924  -0.34660  -0.31257  -0.30540
  -0.08819  -0.08044  -0.07571   0.11729   0.15027   0.15858   0.16467   0.18468
   0.21307   0.22327   0.23097   0.24150   0.36734
 kpt#   8, nband= 21, wtk=  0.04688, kpt=  0.3125  0.3125  0.0625 (reduced coord)
  -1.77863  -0.92007  -0.92004  -0.91829  -0.62903  -0.33923  -0.31344  -0.30965
  -0.09082  -0.08505  -0.07469   0.12438   0.14316   0.14432   0.17133   0.17726
   0.20959   0.22458   0.23479   0.25577   0.38923
 kpt#   9, nband= 21, wtk=  0.09375, kpt=  0.4375  0.3125  0.0625 (reduced coord)
  -1.77861  -0.92075  -0.92001  -0.91827  -0.62787  -0.33766  -0.31197  -0.30895
  -0.09050  -0.08537  -0.07613   0.11419   0.12926   0.13820   0.16495   0.17436
   0.21113   0.22484   0.23340   0.25790   0.39781
 kpt#  10, nband= 21, wtk=  0.04688, kpt=  0.4375  0.4375  0.0625 (reduced coord)
  -1.77859  -0.92070  -0.92070  -0.91824  -0.62689  -0.33055  -0.31251  -0.31110
  -0.09115  -0.08985  -0.07551   0.10869   0.11767   0.12495   0.16511   0.16570
   0.20432   0.23522   0.23914   0.26488   0.40775
 kpt#  11, nband= 21, wtk=  0.01563, kpt=  0.1875  0.1875  0.1875 (reduced coord)
  -1.77866  -0.91911  -0.91906  -0.91906  -0.63135  -0.33985  -0.31366  -0.31366
  -0.09200  -0.09200  -0.07062   0.14065   0.16678   0.16678   0.18685   0.18685
   0.19995   0.23839   0.24573   0.24573   0.37514
 kpt#  12, nband= 21, wtk=  0.04688, kpt=  0.3125  0.1875  0.1875 (reduced coord)
  -1.77863  -0.92008  -0.91905  -0.91901  -0.62959  -0.33926  -0.31223  -0.31091
  -0.09447  -0.09139  -0.07031   0.12788   0.15070   0.16325   0.17298   0.18113
   0.19524   0.23638   0.24017   0.24445   0.38132
 kpt#  13, nband= 21, wtk=  0.04688, kpt=  0.4375  0.1875  0.1875 (reduced coord)
  -1.77862  -0.92077  -0.91901  -0.91898  -0.62832  -0.34070  -0.31119  -0.30678
  -0.09629  -0.08625  -0.07536   0.11595   0.14343   0.15999   0.16139   0.17915
   0.20058   0.23033   0.23768   0.23993   0.38082
 kpt#  14, nband= 21, wtk=  0.04688, kpt=  0.3125  0.3125  0.1875 (reduced coord)
  -1.77861  -0.92003  -0.92000  -0.91898  -0.62808  -0.33381  -0.31179  -0.30977
  -0.09750  -0.09678  -0.07357   0.12280   0.14256   0.14722   0.16991   0.17736
   0.18681   0.23369   0.24315   0.25295   0.39761
 kpt#  15, nband= 21, wtk=  0.09375, kpt=  0.4375  0.3125  0.1875 (reduced coord)
  -1.77859  -0.92071  -0.91997  -0.91895  -0.62700  -0.33162  -0.31010  -0.30842
  -0.10109  -0.09470  -0.08049   0.11417   0.13627   0.14050   0.16413   0.17698
   0.18841   0.23384   0.24121   0.25683   0.40128
 kpt#  16, nband= 21, wtk=  0.04688, kpt=  0.4375  0.4375  0.1875 (reduced coord)
  -1.77857  -0.92067  -0.92066  -0.91891  -0.62605  -0.32431  -0.31039  -0.30923
  -0.10074  -0.10004  -0.08790   0.10907   0.12505   0.13643   0.16847   0.17274
   0.18014   0.24115   0.24459   0.26533   0.41369
 kpt#  17, nband= 21, wtk=  0.01563, kpt=  0.3125  0.3125  0.3125 (reduced coord)
  -1.77858  -0.91998  -0.91995  -0.91995  -0.62672  -0.32652  -0.30935  -0.30935
  -0.10504  -0.10504  -0.08182   0.12240   0.14210   0.14210   0.15693   0.17847
   0.17847   0.24636   0.24636   0.25505   0.40997
 kpt#  18, nband= 21, wtk=  0.04688, kpt=  0.4375  0.3125  0.3125 (reduced coord)
  -1.77857  -0.92065  -0.91993  -0.91992  -0.62574  -0.32240  -0.30783  -0.30755
  -0.11077  -0.10537  -0.09220   0.11353   0.13716   0.14198   0.15254   0.17967
   0.18124   0.24468   0.25305   0.25880   0.42047
 kpt#  19, nband= 21, wtk=  0.04688, kpt=  0.4375  0.4375  0.3125 (reduced coord)
  -1.77855  -0.92062  -0.92061  -0.91989  -0.62484  -0.31496  -0.30722  -0.30653
  -0.11359  -0.11194  -0.10400   0.10830   0.12524   0.14126   0.16066   0.17943
   0.18062   0.25369   0.25565   0.26629   0.42435
 kpt#  20, nband= 21, wtk=  0.01563, kpt=  0.4375  0.4375  0.4375 (reduced coord)
  -1.77853  -0.92058  -0.92058  -0.92058  -0.62398  -0.30767  -0.30483  -0.30483
  -0.12001  -0.12001  -0.11608   0.10355   0.12540   0.12540   0.17620   0.18220
   0.18220   0.26518   0.26518   0.26783   0.43209
 Total charge density [el/Bohr^3]
,     Maximum=    1.3287E+00  at reduced coord.    0.5111    0.5333    0.5778
,Next maximum=    1.3287E+00  at reduced coord.    0.4889    0.5333    0.5778
,     Minimum=    1.7139E-03  at reduced coord.    0.0000    0.0000    0.0000
,Next minimum=    2.2829E-03  at reduced coord.    0.0222    0.0000    0.0000

--------------------------------------------------------------------------------
 Components of total free energy (in Hartree) :

    Kinetic energy  =  6.35599202123211E+01
    Hartree energy  =  2.88503797524810E+01
    XC energy       = -2.13794516265745E+01
    Ewald energy    = -1.05339202560102E+02
    PspCore energy  =  5.06725674588120E+00
    Loc. psp. energy= -1.18702735543588E+02
    NL   psp  energy=  1.61009810331599E+01
    >>>>>>>>> Etotal= -1.31842851986422E+02

 Other information on the energy :
    Total energy(eV)= -3.58762645459968E+03 ; Band energy (Ha)=  -9.3642676878E+00
--------------------------------------------------------------------------------

 Cartesian components of stress tensor (hartree/bohr^3)
  sigma(1 1)=  3.10703562E-08  sigma(3 2)=  0.00000000E+00
  sigma(2 2)=  3.10703562E-08  sigma(3 1)=  0.00000000E+00
  sigma(3 3)=  3.10703562E-08  sigma(2 1)=  0.00000000E+00

-Cartesian components of stress tensor (GPa)         [Pressure= -9.1412E-04 GPa]
- sigma(1 1)=  9.14121286E-04  sigma(3 2)=  0.00000000E+00
- sigma(2 2)=  9.14121286E-04  sigma(3 1)=  0.00000000E+00
- sigma(3 3)=  9.14121286E-04  sigma(2 1)=  0.00000000E+00

== END DATASET(S) ==============================================================
================================================================================
  
 -outvars: echo values of variables after computation  --------
     acell    7.4434230817E+00  7.4434230817E+00  7.4434230817E+00 Bohr
       amu    1.37327000E+02  4.78800000E+01  1.59994000E+01
    diemac    1.20000000E+01
      ecut    4.30000000E+01 Hartree
    ecutsm    3.00000000E+00 Hartree
    etotal   -1.3184285199E+02
     fcart   -0.0000000000E+00 -0.0000000000E+00 -0.0000000000E+00
             -0.0000000000E+00 -0.0000000000E+00 -0.0000000000E+00
             -0.0000000000E+00 -0.0000000000E+00 -0.0000000000E+00
             -0.0000000000E+00 -0.0000000000E+00 -0.0000000000E+00
             -0.0000000000E+00 -0.0000000000E+00 -0.0000000000E+00
       ixc         3
       kpt    6.25000000E-02  6.25000000E-02  6.25000000E-02
              1.87500000E-01  6.25000000E-02  6.25000000E-02
              3.12500000E-01  6.25000000E-02  6.25000000E-02
              4.37500000E-01  6.25000000E-02  6.25000000E-02
              1.87500000E-01  1.87500000E-01  6.25000000E-02
              3.12500000E-01  1.87500000E-01  6.25000000E-02
              4.37500000E-01  1.87500000E-01  6.25000000E-02
              3.12500000E-01  3.12500000E-01  6.25000000E-02
              4.37500000E-01  3.12500000E-01  6.25000000E-02
              4.37500000E-01  4.37500000E-01  6.25000000E-02
              1.87500000E-01  1.87500000E-01  1.87500000E-01
              3.12500000E-01  1.87500000E-01  1.87500000E-01
              4.37500000E-01  1.87500000E-01  1.87500000E-01
              3.12500000E-01  3.12500000E-01  1.87500000E-01
              4.37500000E-01  3.12500000E-01  1.87500000E-01
              4.37500000E-01  4.37500000E-01  1.87500000E-01
              3.12500000E-01  3.12500000E-01  3.12500000E-01
              4.37500000E-01  3.12500000E-01  3.12500000E-01
              4.37500000E-01  4.37500000E-01  3.12500000E-01
              4.37500000E-01  4.37500000E-01  4.37500000E-01
   kptrlen    5.95473847E+01
    kptopt         1
  kptrlatt    8  0  0   0  8  0   0  0  8
P    mkmem         5
     natom         5
     nband        21
     ngfft        45      45      45
      nkpt        20
     nstep        45
      nsym        48
    ntypat         3
       occ    2.000000  2.000000  2.000000  2.000000  2.000000  2.000000
              2.000000  2.000000  2.000000  2.000000  2.000000  2.000000
              2.000000  2.000000  2.000000  2.000000  2.000000  2.000000
              2.000000  2.000000  0.000000
    prtden         0
     prtwf         0
    shiftk    5.00000000E-01  5.00000000E-01  5.00000000E-01
   spgroup       221
    strten    3.1070356215E-08  3.1070356215E-08  3.1070356215E-08
              0.0000000000E+00  0.0000000000E+00  0.0000000000E+00
    symrel    1  0  0   0  1  0   0  0  1      -1  0  0   0 -1  0   0  0 -1
             -1  0  0   0  1  0   0  0 -1       1  0  0   0 -1  0   0  0  1
             -1  0  0   0 -1  0   0  0  1       1  0  0   0  1  0   0  0 -1
              1  0  0   0 -1  0   0  0 -1      -1  0  0   0  1  0   0  0  1
              0  1  0   1  0  0   0  0  1       0 -1  0  -1  0  0   0  0 -1
              0 -1  0   1  0  0   0  0 -1       0  1  0  -1  0  0   0  0  1
              0 -1  0  -1  0  0   0  0  1       0  1  0   1  0  0   0  0 -1
              0  1  0  -1  0  0   0  0 -1       0 -1  0   1  0  0   0  0  1
              0  0  1   1  0  0   0  1  0       0  0 -1  -1  0  0   0 -1  0
              0  0 -1   1  0  0   0 -1  0       0  0  1  -1  0  0   0  1  0
              0  0 -1  -1  0  0   0  1  0       0  0  1   1  0  0   0 -1  0
              0  0  1  -1  0  0   0 -1  0       0  0 -1   1  0  0   0  1  0
              1  0  0   0  0  1   0  1  0      -1  0  0   0  0 -1   0 -1  0
             -1  0  0   0  0  1   0 -1  0       1  0  0   0  0 -1   0  1  0
             -1  0  0   0  0 -1   0  1  0       1  0  0   0  0  1   0 -1  0
              1  0  0   0  0 -1   0 -1  0      -1  0  0   0  0  1   0  1  0
              0  1  0   0  0  1   1  0  0       0 -1  0   0  0 -1  -1  0  0
              0 -1  0   0  0  1  -1  0  0       0  1  0   0  0 -1   1  0  0
              0 -1  0   0  0 -1   1  0  0       0  1  0   0  0  1  -1  0  0
              0  1  0   0  0 -1  -1  0  0       0 -1  0   0  0  1   1  0  0
              0  0  1   0  1  0   1  0  0       0  0 -1   0 -1  0  -1  0  0
              0  0 -1   0  1  0  -1  0  0       0  0  1   0 -1  0   1  0  0
              0  0 -1   0 -1  0   1  0  0       0  0  1   0  1  0  -1  0  0
              0  0  1   0 -1  0  -1  0  0       0  0 -1   0  1  0   1  0  0
    toldfe    1.00000000E-10 Hartree
     typat    1  2  3  3  3
       wtk      0.01563    0.04688    0.04688    0.04688    0.04688    0.09375
                0.09375    0.04688    0.09375    0.04688    0.01563    0.04688
                0.04688    0.04688    0.09375    0.04688    0.01563    0.04688
                0.04688    0.01563
    xangst    0.0000000000E+00  0.0000000000E+00  0.0000000000E+00
              1.9694449244E+00  1.9694449244E+00  1.9694449244E+00
              0.0000000000E+00  1.9694449244E+00  1.9694449244E+00
              1.9694449244E+00  0.0000000000E+00  1.9694449244E+00
              1.9694449244E+00  1.9694449244E+00  0.0000000000E+00
     xcart    0.0000000000E+00  0.0000000000E+00  0.0000000000E+00
              3.7217115408E+00  3.7217115408E+00  3.7217115408E+00
              0.0000000000E+00  3.7217115408E+00  3.7217115408E+00
              3.7217115408E+00  0.0000000000E+00  3.7217115408E+00
              3.7217115408E+00  3.7217115408E+00  0.0000000000E+00
      xred    0.0000000000E+00  0.0000000000E+00  0.0000000000E+00
              5.0000000000E-01  5.0000000000E-01  5.0000000000E-01
              0.0000000000E+00  5.0000000000E-01  5.0000000000E-01
              5.0000000000E-01  0.0000000000E+00  5.0000000000E-01
              5.0000000000E-01  5.0000000000E-01  0.0000000000E+00
     znucl     56.00000   22.00000    8.00000

================================================================================


- Timing analysis has been suppressed with timopt=0


-
- Proc.   0 individual time (sec): cpu=        282.5  wall=        282.5

================================================================================

 Calculation completed.
.Delivered    0 WARNINGs and   0 COMMENTs to log file.
+Overall time at end (sec) : cpu=       1130.0  wall=       1130.0
