
.Version 5.6.5  of ABINIT 
.(MPI version, prepared for a x86_64_linux_gcc4.3 computer) 

.Copyright (C) 1998-2008 ABINIT group . 
 ABINIT comes with ABSOLUTELY NO WARRANTY.
 It is free software, and you are welcome to redistribute it
 under certain conditions (GNU General Public License,
 see ~abinit/COPYING or http://www.gnu.org/copyleft/gpl.txt).

 ABINIT is a project of the Universite Catholique de Louvain,
 Corning Inc. and other collaborators, see ~abinit/doc/developers/contributors.txt .
 Please read ~abinit/doc/users/acknowledgments.html for suggested
 acknowledgments of the ABINIT effort.
 For more information, see http://www.abinit.org .

.Starting date : Fri  6 Mar 2009.
  
- input  file    -> perovskite-a0.in
- output file    -> perovskite-a0.out
- root for input  files -> perovskite-a0_i
- root for output files -> perovskite-a0_o


 Symmetries : space group Pm -3 m (#221); Bravais cP (primitive cubic)
================================================================================
 Values of the parameters that define the memory need of the present run
   intxc =         0  ionmov =         2    iscf =         7 xclevel =         1
  lmnmax =         4   lnmax =         4   mband =        21  mffmem =         1
P  mgfft =        60   mkmem =         5 mpssoang=         3     mpw =     13250
  mqgrid =      3001   natom =         5    nfft =    216000    nkpt =        20
  nloalg =         4  nspden =         1 nspinor =         1  nsppol =         1
    nsym =        48  n1xccc =         0  ntypat =         3  occopt =         1
================================================================================
P This job should need less than                      87.131 Mbytes of memory.
  Rough estimation (10% accuracy) of disk space for files :
  WF disk file :     84.917 Mbytes ; DEN or POT disk file :      1.650 Mbytes.
================================================================================

 -outvars: echo values of preprocessed input variables --------
     acell    7.4644182249E+00  7.4644182249E+00  7.4644182249E+00 Bohr
       amu    1.37327000E+02  4.78800000E+01  1.59994000E+01
    diemac    1.20000000E+01
   dilatmx    1.10000000E+00
      ecut    6.30000000E+01 Hartree
    ecutsm    3.00000000E+00 Hartree
    ionmov         2
       ixc         3
       kpt    6.25000000E-02  6.25000000E-02  6.25000000E-02
              1.87500000E-01  6.25000000E-02  6.25000000E-02
              3.12500000E-01  6.25000000E-02  6.25000000E-02
              4.37500000E-01  6.25000000E-02  6.25000000E-02
              1.87500000E-01  1.87500000E-01  6.25000000E-02
              3.12500000E-01  1.87500000E-01  6.25000000E-02
              4.37500000E-01  1.87500000E-01  6.25000000E-02
              3.12500000E-01  3.12500000E-01  6.25000000E-02
              4.37500000E-01  3.12500000E-01  6.25000000E-02
              4.37500000E-01  4.37500000E-01  6.25000000E-02
              1.87500000E-01  1.87500000E-01  1.87500000E-01
              3.12500000E-01  1.87500000E-01  1.87500000E-01
              4.37500000E-01  1.87500000E-01  1.87500000E-01
              3.12500000E-01  3.12500000E-01  1.87500000E-01
              4.37500000E-01  3.12500000E-01  1.87500000E-01
              4.37500000E-01  4.37500000E-01  1.87500000E-01
              3.12500000E-01  3.12500000E-01  3.12500000E-01
              4.37500000E-01  3.12500000E-01  3.12500000E-01
              4.37500000E-01  4.37500000E-01  3.12500000E-01
              4.37500000E-01  4.37500000E-01  4.37500000E-01
   kptrlen    5.97153458E+01
    kptopt         1
  kptrlatt    8  0  0   0  8  0   0  0  8
P    mkmem         5
     natom         5
     nband        21
     ngfft        60      60      60
      nkpt        20
     nstep        35
      nsym        48
     ntime        30
    ntypat         3
       occ    2.000000  2.000000  2.000000  2.000000  2.000000  2.000000
              2.000000  2.000000  2.000000  2.000000  2.000000  2.000000
              2.000000  2.000000  2.000000  2.000000  2.000000  2.000000
              2.000000  2.000000  0.000000
   optcell         2
    prtden         0
     prtwf         0
    shiftk    5.00000000E-01  5.00000000E-01  5.00000000E-01
   spgroup       221
    symrel    1  0  0   0  1  0   0  0  1      -1  0  0   0 -1  0   0  0 -1
             -1  0  0   0  1  0   0  0 -1       1  0  0   0 -1  0   0  0  1
             -1  0  0   0 -1  0   0  0  1       1  0  0   0  1  0   0  0 -1
              1  0  0   0 -1  0   0  0 -1      -1  0  0   0  1  0   0  0  1
              0  1  0   1  0  0   0  0  1       0 -1  0  -1  0  0   0  0 -1
              0 -1  0   1  0  0   0  0 -1       0  1  0  -1  0  0   0  0  1
              0 -1  0  -1  0  0   0  0  1       0  1  0   1  0  0   0  0 -1
              0  1  0  -1  0  0   0  0 -1       0 -1  0   1  0  0   0  0  1
              0  0  1   1  0  0   0  1  0       0  0 -1  -1  0  0   0 -1  0
              0  0 -1   1  0  0   0 -1  0       0  0  1  -1  0  0   0  1  0
              0  0 -1  -1  0  0   0  1  0       0  0  1   1  0  0   0 -1  0
              0  0  1  -1  0  0   0 -1  0       0  0 -1   1  0  0   0  1  0
              1  0  0   0  0  1   0  1  0      -1  0  0   0  0 -1   0 -1  0
             -1  0  0   0  0  1   0 -1  0       1  0  0   0  0 -1   0  1  0
             -1  0  0   0  0 -1   0  1  0       1  0  0   0  0  1   0 -1  0
              1  0  0   0  0 -1   0 -1  0      -1  0  0   0  0  1   0  1  0
              0  1  0   0  0  1   1  0  0       0 -1  0   0  0 -1  -1  0  0
              0 -1  0   0  0  1  -1  0  0       0  1  0   0  0 -1   1  0  0
              0 -1  0   0  0 -1   1  0  0       0  1  0   0  0  1  -1  0  0
              0  1  0   0  0 -1  -1  0  0       0 -1  0   0  0  1   1  0  0
              0  0  1   0  1  0   1  0  0       0  0 -1   0 -1  0  -1  0  0
              0  0 -1   0  1  0  -1  0  0       0  0  1   0 -1  0   1  0  0
              0  0 -1   0 -1  0   1  0  0       0  0  1   0  1  0  -1  0  0
              0  0  1   0 -1  0  -1  0  0       0  0 -1   0  1  0   1  0  0
    toldfe    1.00000000E-10 Hartree
     typat    1  2  3  3  3
       wtk      0.01563    0.04688    0.04688    0.04688    0.04688    0.09375
                0.09375    0.04688    0.09375    0.04688    0.01563    0.04688
                0.04688    0.04688    0.09375    0.04688    0.01563    0.04688
                0.04688    0.01563
    xangst    0.0000000000E+00  0.0000000000E+00  0.0000000000E+00
              1.9750000000E+00  1.9750000000E+00  1.9750000000E+00
              0.0000000000E+00  1.9750000000E+00  1.9750000000E+00
              1.9750000000E+00  0.0000000000E+00  1.9750000000E+00
              1.9750000000E+00  1.9750000000E+00  0.0000000000E+00
     xcart    0.0000000000E+00  0.0000000000E+00  0.0000000000E+00
              3.7322091124E+00  3.7322091124E+00  3.7322091124E+00
              0.0000000000E+00  3.7322091124E+00  3.7322091124E+00
              3.7322091124E+00  0.0000000000E+00  3.7322091124E+00
              3.7322091124E+00  3.7322091124E+00  0.0000000000E+00
      xred    0.0000000000E+00  0.0000000000E+00  0.0000000000E+00
              5.0000000000E-01  5.0000000000E-01  5.0000000000E-01
              0.0000000000E+00  5.0000000000E-01  5.0000000000E-01
              5.0000000000E-01  0.0000000000E+00  5.0000000000E-01
              5.0000000000E-01  5.0000000000E-01  0.0000000000E+00
     znucl     56.00000   22.00000    8.00000

================================================================================

 chkinp: Checking input parameters for consistency.

================================================================================
== DATASET  1 ==================================================================

 Real(R)+Recip(G) space primitive vectors, cartesian coordinates (Bohr,Bohr^-1):
 R(1)=  7.4644182  0.0000000  0.0000000  G(1)=  0.1339689  0.0000000  0.0000000
 R(2)=  0.0000000  7.4644182  0.0000000  G(2)=  0.0000000  0.1339689  0.0000000
 R(3)=  0.0000000  0.0000000  7.4644182  G(3)=  0.0000000  0.0000000  0.1339689
 Unit cell volume ucvol=  4.1589902E+02 bohr^3
 Angles (23,13,12)=  9.00000000E+01  9.00000000E+01  9.00000000E+01 degrees

 getcut: wavevector=  0.0000  0.0000  0.0000  ngfft=  60  60  60
         ecut(hartree)=     76.230   => boxcut(ratio)=   2.04516

--- Pseudopotential description ------------------------------------------------
- pspini: atom type   1  psp file is 56ba.psp.mod
- pspatm: opening atomic psp file    56ba.psp.mod
 Barium.ion 5s2.5p6.6s0.5d0 rcs=rcp=rcd=1.7 ecut=22/28
  56.00000  10.00000    940000                znucl, zion, pspdat
    4    3    2    2      2001   0.00000      pspcod,pspxc,lmax,lloc,mmax,r2well
    0   0.000   0.000    2   1.6965489        l,e99.0,e99.9,nproj,rcpsp
   0.00000000   0.00000000   0.00000000   0.00000000     rms, ekb1, ekb2, epsatm
    1   0.000   0.000    2   1.6965489        l,e99.0,e99.9,nproj,rcpsp
   0.00000000   0.00000000   0.00000000   0.00000000     rms, ekb1, ekb2, epsatm
    2   0.000   0.000    0   1.6965489        l,e99.0,e99.9,nproj,rcpsp
   0.00000000   0.00000000   0.00000000   0.00000000     rms, ekb1, ekb2, epsatm
    0.00000000000000    0.00000000000000    0.00000000000000   rchrg,fchrg,qchrg
 pspatm: epsatm=   43.25917021
         --- l  ekb(1:nproj) -->
             0   -9.646692   27.266828
             1   -6.938476   21.148499
 pspatm: atomic psp has been read  and splines computed

- pspini: atom type   2  psp file is 22ti.psp.mod
- pspatm: opening atomic psp file    22ti.psp.mod
 Titane.ion 3s2.3p6.4s0.3d2 rcd=1.65, rcs=rc0=1.25, ecut 32/54
  22.00000  12.00000    940000                znucl, zion, pspdat
    4    3    2    2      2001   0.00000      pspcod,pspxc,lmax,lloc,mmax,r2well
    0   0.000   0.000    2   1.2533577        l,e99.0,e99.9,nproj,rcpsp
   0.00000000   0.00000000   0.00000000   0.00000000     rms, ekb1, ekb2, epsatm
    1   0.000   0.000    2   1.2533577        l,e99.0,e99.9,nproj,rcpsp
   0.00000000   0.00000000   0.00000000   0.00000000     rms, ekb1, ekb2, epsatm
    2   0.000   0.000    0   1.6491622        l,e99.0,e99.9,nproj,rcpsp
   0.00000000   0.00000000   0.00000000   0.00000000     rms, ekb1, ekb2, epsatm
    0.00000000000000    0.00000000000000    0.00000000000000   rchrg,fchrg,qchrg
 pspatm: epsatm=    4.67708954
         --- l  ekb(1:nproj) -->
             0    9.517316   -2.344682
             1    5.011406   -0.741179
 pspatm: atomic psp has been read  and splines computed

- pspini: atom type   3  psp file is 8o.phoney.mod
- pspatm: opening atomic psp file    8o.phoney.mod
 Compromise psp for oxygen with rc=1.5 ec=25 double reference
   8.00000   6.00000    980710                znucl, zion, pspdat
    5    3    1    1       600   0.00000      pspcod,pspxc,lmax,lloc,mmax,r2well
    1.000000E-06    3.075239E-02              r1 and al (Hamman grid)
    0   0.000   0.000    2   1.4915765        l,e99.0,e99.9,nproj,rcpsp
   0.00000000   0.00000000   0.00000000   0.00000000     rms, ekb1, ekb2, epsatm
    1   0.000   0.000    0   1.4915765        l,e99.0,e99.9,nproj,rcpsp
   0.00000000   0.00000000   0.00000000   0.00000000     rms, ekb1, ekb2, epsatm
    0.00000000000000    0.00000000000000    0.00000000000000   rchrg,fchrg,qchrg
 pspatm: epsatm=    1.43569736
         --- l  ekb(1:nproj) -->
             0    5.763361   -1.798421
 pspatm: atomic psp has been read  and splines computed

   2.08973407E+03                                ecore*ucvol(ha*bohr**3)
--------------------------------------------------------------------------------

P newkpt: treating     21 bands with npw=   13235 for ikpt=   1 by node    0
P newkpt: treating     21 bands with npw=   13250 for ikpt=   2 by node    0
P newkpt: treating     21 bands with npw=   13232 for ikpt=   3 by node    0
P newkpt: treating     21 bands with npw=   13226 for ikpt=   4 by node    0
P newkpt: treating     21 bands with npw=   13223 for ikpt=   5 by node    0
P newkpt: treating     21 bands with npw=   13220 for ikpt=   6 by node    1
P newkpt: treating     21 bands with npw=   13217 for ikpt=   7 by node    1
P newkpt: treating     21 bands with npw=   13216 for ikpt=   8 by node    1
P newkpt: treating     21 bands with npw=   13223 for ikpt=   9 by node    1
P newkpt: treating     21 bands with npw=   13233 for ikpt=  10 by node    1
P newkpt: treating     21 bands with npw=   13217 for ikpt=  11 by node    2
P newkpt: treating     21 bands with npw=   13233 for ikpt=  12 by node    2
P newkpt: treating     21 bands with npw=   13213 for ikpt=  13 by node    2
P newkpt: treating     21 bands with npw=   13216 for ikpt=  14 by node    2
P newkpt: treating     21 bands with npw=   13215 for ikpt=  15 by node    2
P newkpt: treating     21 bands with npw=   13230 for ikpt=  16 by node    3
P newkpt: treating     21 bands with npw=   13220 for ikpt=  17 by node    3
P newkpt: treating     21 bands with npw=   13195 for ikpt=  18 by node    3
P newkpt: treating     21 bands with npw=   13216 for ikpt=  19 by node    3
P newkpt: treating     21 bands with npw=   13181 for ikpt=  20 by node    3

 setup2: Arith. and geom. avg. npw (full set) are   13221.125   13221.120

================================================================================

 BROYDEN STEP NUMBER   0  ------------------------------------------------------

     iter   Etot(hartree)      deltaE(h)  residm     vres2    diffor    maxfor
 ETOT  1  -130.90487740254    -1.309E+02 6.249E-01 2.720E+03 0.000E+00 0.000E+00
 ETOT  2  -131.81400753049    -9.091E-01 2.921E-01 6.569E+02 0.000E+00 0.000E+00
 ETOT  3  -131.84972554309    -3.572E-02 4.067E-02 1.579E+01 0.000E+00 0.000E+00
 ETOT  4  -131.85336539346    -3.640E-03 3.303E-02 1.449E+01 0.000E+00 0.000E+00
 ETOT  5  -131.85497822515    -1.613E-03 6.686E-03 3.354E+00 0.000E+00 0.000E+00
 ETOT  6  -131.85589294602    -9.147E-04 4.763E-03 8.292E-01 0.000E+00 0.000E+00
 ETOT  7  -131.85618821854    -2.953E-04 3.679E-03 3.836E-01 0.000E+00 0.000E+00
 ETOT  8  -131.85631465103    -1.264E-04 2.066E-03 2.109E-02 0.000E+00 0.000E+00
 ETOT  9  -131.85635135515    -3.670E-05 2.666E-03 4.034E-02 0.000E+00 0.000E+00
 ETOT 10  -131.85637325889    -2.190E-05 1.496E-03 1.667E-03 0.000E+00 0.000E+00
 ETOT 11  -131.85637977568    -6.517E-06 1.602E-03 4.267E-03 0.000E+00 0.000E+00
 ETOT 12  -131.85638343218    -3.656E-06 1.119E-03 9.573E-05 0.000E+00 0.000E+00
 ETOT 13  -131.85638472893    -1.297E-06 8.141E-04 4.056E-04 0.000E+00 0.000E+00
 ETOT 14  -131.85638539609    -6.672E-07 8.266E-04 1.282E-06 0.000E+00 0.000E+00
 ETOT 15  -131.85638566839    -2.723E-07 7.334E-04 3.014E-05 0.000E+00 0.000E+00
 ETOT 16  -131.85638580429    -1.359E-07 6.620E-04 7.418E-07 0.000E+00 0.000E+00
 ETOT 17  -131.85638586599    -6.170E-08 6.241E-04 4.249E-06 0.000E+00 0.000E+00
 ETOT 18  -131.85638589703    -3.104E-08 5.559E-04 5.575E-08 0.000E+00 0.000E+00
 ETOT 19  -131.85638591171    -1.468E-08 5.473E-04 1.964E-06 0.000E+00 0.000E+00
 ETOT 20  -131.85638591925    -7.537E-09 4.513E-04 4.314E-06 0.000E+00 0.000E+00
 ETOT 21  -131.85638592346    -4.216E-09 3.081E-04 4.780E-08 0.000E+00 0.000E+00
 ETOT 22  -131.85638592529    -1.828E-09 2.702E-04 1.065E-06 0.000E+00 0.000E+00
 ETOT 23  -131.85638592641    -1.122E-09 2.222E-04 1.575E-07 0.000E+00 0.000E+00
 ETOT 24  -131.85638592692    -5.039E-10 2.469E-04 2.955E-07 0.000E+00 0.000E+00
 ETOT 25  -131.85638592723    -3.107E-10 1.970E-04 7.665E-08 0.000E+00 0.000E+00
 ETOT 26  -131.85638592737    -1.459E-10 2.639E-04 1.313E-07 0.000E+00 0.000E+00
 ETOT 27  -131.85638592746    -8.799E-11 2.118E-04 2.019E-07 0.000E+00 0.000E+00
 ETOT 28  -131.85638592750    -4.118E-11 2.807E-04 4.046E-08 0.000E+00 0.000E+00

 At SCF step   28, etot is converged :
  for the second time, diff in etot=  4.118E-11 < toldfe=  1.000E-10

 Cartesian components of stress tensor (hartree/bohr^3)
  sigma(1 1)=  5.94328873E-05  sigma(3 2)=  0.00000000E+00
  sigma(2 2)=  5.94328873E-05  sigma(3 1)=  0.00000000E+00
  sigma(3 3)=  5.94328873E-05  sigma(2 1)=  0.00000000E+00

 Unit cell characteristics :
  acell=  7.4644182249E+00  7.4644182249E+00  7.4644182249E+00
  rprim=  1.0000000000E+00  0.0000000000E+00  0.0000000000E+00
          0.0000000000E+00  1.0000000000E+00  0.0000000000E+00
          0.0000000000E+00  0.0000000000E+00  1.0000000000E+00
  ucvol=  4.1589901681E+02 Bohr^3
  lengths=  7.4644182249E+00  7.4644182249E+00  7.4644182249E+00 Bohr
  angles (23,13,12)=  90.00000000  90.00000000  90.00000000 degrees
 Cartesian coordinates (bohr)
  0.00000000000000E+00  0.00000000000000E+00  0.00000000000000E+00
  3.73220911244915E+00  3.73220911244915E+00  3.73220911244915E+00
  0.00000000000000E+00  3.73220911244915E+00  3.73220911244915E+00
  3.73220911244915E+00  0.00000000000000E+00  3.73220911244915E+00
  3.73220911244915E+00  3.73220911244915E+00  0.00000000000000E+00
 Cartesian forces (hart/bohr); max,rms= 0.00000E+00 0.00000E+00 (free atoms)
 -0.00000000000000E+00 -0.00000000000000E+00 -0.00000000000000E+00
 -0.00000000000000E+00 -0.00000000000000E+00 -0.00000000000000E+00
 -0.00000000000000E+00 -0.00000000000000E+00 -0.00000000000000E+00
 -0.00000000000000E+00 -0.00000000000000E+00 -0.00000000000000E+00
 -0.00000000000000E+00 -0.00000000000000E+00 -0.00000000000000E+00

 At the end of Broyden step  0, total energy= -1.31856385927501E+02 Ha.


 BROYDEN STEP NUMBER   1  ------------------------------------------------------

     iter   Etot(hartree)      deltaE(h)  residm     vres2    diffor    maxfor
 ETOT  1  -131.85510054136    -1.319E+02 1.148E-01 3.049E+01 0.000E+00 0.000E+00
 ETOT  2  -131.85568529765    -5.848E-04 3.860E-03 9.512E+00 0.000E+00 0.000E+00
 ETOT  3  -131.85600751024    -3.222E-04 5.091E-04 3.463E+00 0.000E+00 0.000E+00
 ETOT  4  -131.85645475247    -4.472E-04 5.596E-04 2.088E-01 0.000E+00 0.000E+00
 ETOT  5  -131.85647632223    -2.157E-05 1.468E-03 2.099E-02 0.000E+00 0.000E+00
 ETOT  6  -131.85647699024    -6.680E-07 3.610E-04 1.644E-02 0.000E+00 0.000E+00
 ETOT  7  -131.85647837279    -1.383E-06 2.641E-04 6.277E-03 0.000E+00 0.000E+00
 ETOT  8  -131.85647836845     4.341E-09 3.602E-04 7.964E-03 0.000E+00 0.000E+00
 ETOT  9  -131.85647899452    -6.261E-07 2.658E-04 9.089E-04 0.000E+00 0.000E+00
 ETOT 10  -131.85647908138    -8.687E-08 3.607E-04 9.555E-07 0.000E+00 0.000E+00
 ETOT 11  -131.85647907893     2.452E-09 2.667E-04 4.891E-05 0.000E+00 0.000E+00
 ETOT 12  -131.85647908383    -4.899E-09 3.573E-04 6.215E-07 0.000E+00 0.000E+00
 ETOT 13  -131.85647908398    -1.461E-10 2.654E-04 2.578E-07 0.000E+00 0.000E+00
 ETOT 14  -131.85647908390     7.128E-11 3.505E-04 9.450E-07 0.000E+00 0.000E+00
 ETOT 15  -131.85647908404    -1.308E-10 2.614E-04 1.830E-08 0.000E+00 0.000E+00
 ETOT 16  -131.85647908399     4.127E-11 3.402E-04 4.923E-07 0.000E+00 0.000E+00
 ETOT 17  -131.85647908400    -1.000E-11 2.548E-04 3.057E-07 0.000E+00 0.000E+00

 At SCF step   17, etot is converged :
  for the second time, diff in etot=  1.000E-11 < toldfe=  1.000E-10

 Cartesian components of stress tensor (hartree/bohr^3)
  sigma(1 1)=  2.42976028E-05  sigma(3 2)=  0.00000000E+00
  sigma(2 2)=  2.42976028E-05  sigma(3 1)=  0.00000000E+00
  sigma(3 3)=  2.42976028E-05  sigma(2 1)=  0.00000000E+00

 Unit cell characteristics :
  acell=  7.4511092671E+00  7.4511092671E+00  7.4511092671E+00
  rprim=  1.0000000000E+00  0.0000000000E+00  0.0000000000E+00
          0.0000000000E+00  1.0000000000E+00  0.0000000000E+00
          0.0000000000E+00  0.0000000000E+00  1.0000000000E+00
  ucvol=  4.1367835379E+02 Bohr^3
  lengths=  7.4511092671E+00  7.4511092671E+00  7.4511092671E+00 Bohr
  angles (23,13,12)=  90.00000000  90.00000000  90.00000000 degrees
 Cartesian coordinates (bohr)
  0.00000000000000E+00  0.00000000000000E+00  0.00000000000000E+00
  3.72555463353875E+00  3.72555463353875E+00  3.72555463353875E+00
  0.00000000000000E+00  3.72555463353875E+00  3.72555463353875E+00
  3.72555463353875E+00  0.00000000000000E+00  3.72555463353875E+00
  3.72555463353875E+00  3.72555463353875E+00  0.00000000000000E+00
 Cartesian forces (hart/bohr); max,rms= 0.00000E+00 0.00000E+00 (free atoms)
 -0.00000000000000E+00 -0.00000000000000E+00 -0.00000000000000E+00
 -0.00000000000000E+00 -0.00000000000000E+00 -0.00000000000000E+00
 -0.00000000000000E+00 -0.00000000000000E+00 -0.00000000000000E+00
 -0.00000000000000E+00 -0.00000000000000E+00 -0.00000000000000E+00
 -0.00000000000000E+00 -0.00000000000000E+00 -0.00000000000000E+00

 At the end of Broyden step  1, total energy= -1.31856479084005E+02 Ha.


 BROYDEN STEP NUMBER   2  ------------------------------------------------------

     iter   Etot(hartree)      deltaE(h)  residm     vres2    diffor    maxfor
 ETOT  1  -131.85584132063    -1.319E+02 1.906E+03 1.444E+01 0.000E+00 0.000E+00
 ETOT  2  -131.85618957211    -3.483E-04 1.051E+03 3.837E+00 0.000E+00 0.000E+00
 ETOT  3  -131.85631473704    -1.252E-04 5.623E+01 1.384E+00 0.000E+00 0.000E+00
 ETOT  4  -131.85648761144    -1.729E-04 9.289E+01 7.718E-02 0.000E+00 0.000E+00
 ETOT  5  -131.85649605911    -8.448E-06 3.999E+02 1.093E-02 0.000E+00 0.000E+00
 ETOT  6  -131.85649640100    -3.419E-07 1.401E+01 6.958E-03 0.000E+00 0.000E+00
 ETOT  7  -131.85649701948    -6.185E-07 1.101E+00 2.294E-03 0.000E+00 0.000E+00
 ETOT  8  -131.85649710168    -8.221E-08 1.477E-02 1.997E-03 0.000E+00 0.000E+00
 ETOT  9  -131.85649725887    -1.572E-07 9.808E-04 3.032E-04 0.000E+00 0.000E+00
 ETOT 10  -131.85649728662    -2.775E-08 1.867E-04 6.376E-08 0.000E+00 0.000E+00
 ETOT 11  -131.85649728534     1.279E-09 2.033E-04 1.914E-05 0.000E+00 0.000E+00
 ETOT 12  -131.85649728725    -1.911E-09 1.699E-04 1.000E-07 0.000E+00 0.000E+00
 ETOT 13  -131.85649728719     6.494E-11 1.841E-04 1.097E-06 0.000E+00 0.000E+00
 ETOT 14  -131.85649728727    -8.288E-11 1.536E-04 3.028E-07 0.000E+00 0.000E+00

 At SCF step   14, etot is converged :
  for the second time, diff in etot=  8.288E-11 < toldfe=  1.000E-10

 Cartesian components of stress tensor (hartree/bohr^3)
  sigma(1 1)= -3.74354119E-07  sigma(3 2)=  0.00000000E+00
  sigma(2 2)= -3.74354119E-07  sigma(3 1)=  0.00000000E+00
  sigma(3 3)= -3.74354119E-07  sigma(2 1)=  0.00000000E+00

 Unit cell characteristics :
  acell=  7.4419883555E+00  7.4419883555E+00  7.4419883555E+00
  rprim=  1.0000000000E+00  0.0000000000E+00  0.0000000000E+00
          0.0000000000E+00  1.0000000000E+00  0.0000000000E+00
          0.0000000000E+00  0.0000000000E+00  1.0000000000E+00
  ucvol=  4.1216106015E+02 Bohr^3
  lengths=  7.4419883555E+00  7.4419883555E+00  7.4419883555E+00 Bohr
  angles (23,13,12)=  90.00000000  90.00000000  90.00000000 degrees
 Cartesian coordinates (bohr)
  0.00000000000000E+00  0.00000000000000E+00  0.00000000000000E+00
  3.72099417774353E+00  3.72099417774353E+00  3.72099417774353E+00
  0.00000000000000E+00  3.72099417774353E+00  3.72099417774353E+00
  3.72099417774353E+00  0.00000000000000E+00  3.72099417774353E+00
  3.72099417774353E+00  3.72099417774353E+00  0.00000000000000E+00
 Cartesian forces (hart/bohr); max,rms= 0.00000E+00 0.00000E+00 (free atoms)
 -0.00000000000000E+00 -0.00000000000000E+00 -0.00000000000000E+00
 -0.00000000000000E+00 -0.00000000000000E+00 -0.00000000000000E+00
 -0.00000000000000E+00 -0.00000000000000E+00 -0.00000000000000E+00
 -0.00000000000000E+00 -0.00000000000000E+00 -0.00000000000000E+00
 -0.00000000000000E+00 -0.00000000000000E+00 -0.00000000000000E+00

 At the end of Broyden step  2, total energy= -1.31856497287273E+02 Ha.


 At Broyd/MD step   2, gradients are converged :
  max grad (force/stress) = 3.7435E-05 < tolmxf= 5.0000E-05 ha/bohr (free atoms)

================================================================================

 ----iterations are completed or convergence reached----

 Mean square residual over all n,k,spin=   4.5632E-07; max=  1.5359E-04
   0.0625  0.0625  0.0625    1  2.92814E-06 kpt; spin; max resid(k); each band:
 3.54E-14 1.18E-13 1.16E-13 1.17E-13 3.36E-15 3.62E-14 4.10E-14 4.11E-14
 1.11E-14 1.12E-14 1.01E-14 5.06E-13 1.55E-13 2.62E-13 1.87E-13 5.18E-13
 7.76E-16 9.04E-12 2.40E-13 3.30E-13 2.93E-06
   0.1875  0.0625  0.0625    1  7.36080E-07 kpt; spin; max resid(k); each band:
 3.93E-14 1.16E-13 1.17E-13 1.16E-13 4.30E-15 3.96E-14 3.97E-14 9.11E-14
 1.11E-14 8.99E-15 1.27E-14 2.36E-13 2.91E-13 1.61E-13 8.01E-13 4.02E-13
 1.76E-12 5.92E-13 2.32E-13 3.57E-13 7.36E-07
   0.3125  0.0625  0.0625    1  3.65463E-10 kpt; spin; max resid(k); each band:
 4.29E-14 1.18E-13 1.15E-13 1.14E-13 5.41E-15 4.25E-14 3.96E-14 1.04E-13
 9.51E-15 8.33E-15 1.76E-14 5.40E-13 3.62E-13 1.59E-13 7.09E-13 7.12E-13
 6.97E-13 3.74E-13 4.68E-13 2.69E-13 3.65E-10
   0.4375  0.0625  0.0625    1  2.73558E-12 kpt; spin; max resid(k); each band:
 4.39E-14 1.22E-13 1.15E-13 1.13E-13 6.11E-15 4.83E-14 4.16E-14 1.08E-13
 7.49E-15 6.17E-15 1.95E-14 7.12E-13 2.21E-13 1.36E-13 3.78E-13 6.38E-13
 9.69E-13 3.82E-13 9.27E-13 2.89E-13 2.74E-12
   0.1875  0.1875  0.0625    1  1.55509E-06 kpt; spin; max resid(k); each band:
 4.35E-14 1.16E-13 1.12E-13 1.15E-13 4.46E-15 4.64E-14 6.62E-14 7.23E-14
 1.25E-14 1.04E-14 1.18E-14 2.76E-13 1.12E-12 2.25E-13 7.31E-13 4.92E-13
 4.07E-13 4.67E-13 4.97E-13 2.61E-13 1.56E-06
   0.3125  0.1875  0.0625    1  3.75507E-08 kpt; spin; max resid(k); each band:
 4.73E-14 1.16E-13 1.13E-13 1.15E-13 4.55E-15 5.02E-14 6.63E-14 1.01E-13
 1.24E-14 1.17E-14 1.12E-14 2.09E-13 2.79E-13 1.99E-13 3.30E-13 9.16E-13
 1.28E-13 1.06E-12 3.39E-13 2.01E-13 3.76E-08
   0.4375  0.1875  0.0625    1  3.09360E-11 kpt; spin; max resid(k); each band:
 4.84E-14 1.20E-13 1.09E-13 1.14E-13 4.56E-15 5.67E-14 5.45E-14 1.09E-13
 1.01E-14 1.30E-14 1.48E-14 3.69E-13 4.61E-13 3.43E-13 1.66E-13 8.00E-13
 1.49E-13 4.14E-13 3.35E-13 3.77E-13 3.09E-11
   0.3125  0.3125  0.0625    1  8.70131E-06 kpt; spin; max resid(k); each band:
 5.12E-14 1.14E-13 1.11E-13 1.14E-13 3.29E-15 5.72E-14 1.08E-13 9.26E-14
 1.28E-14 1.49E-14 7.07E-15 1.78E-13 1.02E-12 4.58E-13 2.19E-13 2.04E-12
 3.66E-13 2.80E-13 6.24E-14 1.09E-13 8.70E-06
   0.4375  0.3125  0.0625    1  6.33267E-08 kpt; spin; max resid(k); each band:
 5.24E-14 1.20E-13 1.12E-13 1.13E-13 2.34E-15 6.84E-14 9.95E-14 1.09E-13
 1.32E-14 1.51E-14 4.32E-15 2.80E-13 7.21E-13 7.96E-13 2.65E-13 5.67E-13
 3.52E-13 2.07E-13 7.21E-14 1.32E-13 6.33E-08
   0.4375  0.4375  0.0625    1  9.77272E-08 kpt; spin; max resid(k); each band:
 5.44E-14 1.17E-13 1.12E-13 1.12E-13 7.09E-16 6.88E-14 1.11E-13 1.11E-13
 1.18E-14 1.16E-14 2.52E-15 1.78E-13 1.04E-12 6.89E-13 3.50E-13 8.67E-13
 1.76E-13 5.45E-14 9.18E-14 6.13E-14 9.77E-08
   0.1875  0.1875  0.1875    1  1.09647E-07 kpt; spin; max resid(k); each band:
 4.79E-14 1.16E-13 1.11E-13 1.11E-13 4.20E-15 5.67E-14 7.84E-14 9.01E-14
 1.24E-14 1.17E-14 8.30E-15 1.73E-13 2.48E-13 2.82E-13 5.91E-13 4.27E-13
 4.20E-13 6.08E-16 2.42E-13 2.13E-13 1.10E-07
   0.3125  0.1875  0.1875    1  2.70045E-07 kpt; spin; max resid(k); each band:
 5.21E-14 1.14E-13 1.12E-13 1.09E-13 3.78E-15 6.17E-14 7.22E-14 1.05E-13
 1.06E-14 1.47E-14 6.25E-15 2.08E-13 4.73E-13 2.19E-13 2.99E-13 6.37E-13
 2.42E-13 2.38E-13 1.76E-13 1.81E-13 2.70E-07
   0.4375  0.1875  0.1875    1  3.93033E-11 kpt; spin; max resid(k); each band:
 5.33E-14 1.22E-13 1.11E-13 1.08E-13 3.41E-15 6.73E-14 6.91E-14 1.09E-13
 1.05E-14 1.50E-14 6.20E-15 6.17E-13 9.08E-13 2.66E-13 1.82E-13 9.27E-13
 2.88E-13 2.26E-13 1.27E-13 1.25E-13 3.93E-11
   0.3125  0.3125  0.1875    1  1.91200E-05 kpt; spin; max resid(k); each band:
 5.63E-14 1.13E-13 1.10E-13 1.09E-13 2.62E-15 7.12E-14 1.08E-13 8.31E-14
 1.51E-14 1.42E-14 6.16E-15 2.37E-13 1.55E-12 4.13E-13 3.25E-13 8.37E-13
 5.16E-13 2.54E-13 8.06E-14 3.81E-13 1.91E-05
   0.4375  0.3125  0.1875    1  1.53586E-04 kpt; spin; max resid(k); each band:
 5.77E-14 1.18E-13 1.11E-13 1.08E-13 1.74E-15 7.80E-14 8.69E-14 1.08E-13
 1.33E-14 1.84E-14 7.32E-15 3.06E-13 5.45E-13 4.81E-13 2.98E-13 7.29E-13
 4.29E-13 1.50E-13 9.14E-14 1.31E-13 1.54E-04
   0.4375  0.4375  0.1875    1  2.30709E-07 kpt; spin; max resid(k); each band:
 5.99E-14 1.12E-13 1.11E-13 1.07E-13 5.26E-16 6.80E-14 1.09E-13 1.08E-13
 1.49E-14 1.62E-14 1.14E-14 2.12E-13 8.06E-13 9.26E-13 3.75E-13 4.28E-13
 4.04E-13 5.67E-14 2.47E-14 3.68E-14 2.31E-07
   0.3125  0.3125  0.3125    1  4.57814E-07 kpt; spin; max resid(k); each band:
 6.05E-14 1.10E-13 1.07E-13 1.08E-13 1.63E-15 8.59E-14 9.54E-14 1.07E-13
 1.75E-14 1.66E-14 8.81E-15 1.35E-13 4.58E-13 4.60E-13 3.26E-13 5.66E-13
 4.88E-13 1.72E-13 5.16E-14 4.85E-16 4.58E-07
   0.4375  0.3125  0.3125    1  2.97304E-06 kpt; spin; max resid(k); each band:
 6.26E-14 1.15E-13 1.07E-13 1.05E-13 8.81E-16 8.90E-14 1.09E-13 1.01E-13
 1.40E-14 2.01E-14 1.48E-14 2.89E-13 8.61E-13 1.09E-12 1.43E-12 1.23E-12
 3.97E-13 2.12E-13 1.11E-13 2.86E-13 2.97E-06
   0.4375  0.4375  0.3125    1  7.88669E-07 kpt; spin; max resid(k); each band:
 6.51E-14 1.09E-13 1.08E-13 1.07E-13 2.73E-16 9.33E-14 1.08E-13 1.04E-13
 1.85E-14 1.72E-14 1.59E-14 1.90E-13 5.89E-13 9.29E-13 7.86E-13 5.88E-13
 4.73E-13 4.22E-14 4.52E-14 2.22E-14 7.89E-07
   0.4375  0.4375  0.4375    1  1.87671E-12 kpt; spin; max resid(k); each band:
 6.78E-14 1.11E-13 1.07E-13 1.11E-13 8.06E-17 1.05E-13 1.07E-13 1.04E-13
 2.26E-14 2.94E-14 1.79E-14 8.84E-14 6.51E-13 6.27E-13 9.95E-13 2.85E-13
 4.43E-13 2.89E-14 3.41E-14 2.85E-16 1.88E-12
 reduced coordinates (array xred) for    5 atoms
       0.000000000000      0.000000000000      0.000000000000
       0.500000000000      0.500000000000      0.500000000000
       0.000000000000      0.500000000000      0.500000000000
       0.500000000000      0.000000000000      0.500000000000
       0.500000000000      0.500000000000      0.000000000000
 rms dE/dt=  0.0000E+00; max dE/dt=  0.0000E+00; dE/dt below (all hartree)
    1       0.000000000000      0.000000000000      0.000000000000
    2       0.000000000000      0.000000000000      0.000000000000
    3       0.000000000000      0.000000000000      0.000000000000
    4       0.000000000000      0.000000000000      0.000000000000
    5       0.000000000000      0.000000000000      0.000000000000

 cartesian coordinates (angstrom) at end:
    1      0.00000000000000     0.00000000000000     0.00000000000000
    2      1.97500000000000     1.97500000000000     1.97500000000000
    3      0.00000000000000     1.97500000000000     1.97500000000000
    4      1.97500000000000     0.00000000000000     1.97500000000000
    5      1.97500000000000     1.97500000000000     0.00000000000000

 cartesian forces (hartree/bohr) at end:
    1     -0.00000000000000    -0.00000000000000    -0.00000000000000
    2     -0.00000000000000    -0.00000000000000    -0.00000000000000
    3     -0.00000000000000    -0.00000000000000    -0.00000000000000
    4     -0.00000000000000    -0.00000000000000    -0.00000000000000
    5     -0.00000000000000    -0.00000000000000    -0.00000000000000
 frms,max,avg= 0.0000000E+00 0.0000000E+00   0.000E+00  0.000E+00  0.000E+00 h/b

 cartesian forces (eV/Angstrom) at end:
    1     -0.00000000000000    -0.00000000000000    -0.00000000000000
    2     -0.00000000000000    -0.00000000000000    -0.00000000000000
    3     -0.00000000000000    -0.00000000000000    -0.00000000000000
    4     -0.00000000000000    -0.00000000000000    -0.00000000000000
    5     -0.00000000000000    -0.00000000000000    -0.00000000000000
 frms,max,avg= 0.0000000E+00 0.0000000E+00   0.000E+00  0.000E+00  0.000E+00 e/A
 length scales=  7.441988355487  7.441988355487  7.441988355487 bohr
              =  3.938130624316  3.938130624316  3.938130624316 angstroms
 prteigrs : about to open file perovskite-a0_o_EIG
 Fermi (or HOMO) energy (hartree) =   0.26796   Average Vxc (hartree)=  -0.43875
 Eigenvalues (hartree) for nkpt=  20  k points:
 kpt#   1, nband= 21, wtk=  0.01563, kpt=  0.0625  0.0625  0.0625 (reduced coord)
  -1.77830  -0.91896  -0.91895  -0.91895  -0.63527  -0.34153  -0.31512  -0.31512
  -0.08987  -0.08987  -0.08674   0.17948   0.18418   0.18418   0.21765   0.21765
   0.22756   0.25537   0.26246   0.26246   0.34295
 kpt#   2, nband= 21, wtk=  0.04688, kpt=  0.1875  0.0625  0.0625 (reduced coord)
  -1.77828  -0.91967  -0.91893  -0.91892  -0.63378  -0.34303  -0.31460  -0.31349
  -0.08852  -0.08835  -0.08098   0.16193   0.17858   0.17997   0.20309   0.20675
   0.22386   0.23446   0.25472   0.25497   0.34461
 kpt#   3, nband= 21, wtk=  0.04688, kpt=  0.3125  0.0625  0.0625 (reduced coord)
  -1.77826  -0.92067  -0.91888  -0.91888  -0.63162  -0.34784  -0.31385  -0.30776
  -0.08613  -0.08474  -0.07483   0.13696   0.16947   0.17131   0.19123   0.19271
   0.21502   0.21920   0.24512   0.24629   0.34700
 kpt#   4, nband= 21, wtk=  0.04688, kpt=  0.4375  0.0625  0.0625 (reduced coord)
  -1.77824  -0.92137  -0.91885  -0.91885  -0.63006  -0.35214  -0.31332  -0.30229
  -0.08452  -0.08137  -0.07127   0.11956   0.16327   0.16450   0.17841   0.18722
   0.20964   0.21580   0.23795   0.24090   0.34874
 kpt#   5, nband= 21, wtk=  0.04688, kpt=  0.1875  0.1875  0.0625 (reduced coord)
  -1.77827  -0.91965  -0.91961  -0.91889  -0.63244  -0.34201  -0.31436  -0.31299
  -0.09009  -0.08723  -0.07605   0.15105   0.16906   0.17641   0.18763   0.19726
   0.21912   0.23027   0.24588   0.25233   0.36225
 kpt#   6, nband= 21, wtk=  0.09375, kpt=  0.3125  0.1875  0.0625 (reduced coord)
  -1.77824  -0.92063  -0.91958  -0.91885  -0.63051  -0.34363  -0.31320  -0.30948
  -0.08914  -0.08465  -0.07366   0.13249   0.15776   0.16596   0.17404   0.18816
   0.21119   0.22857   0.23569   0.24805   0.36614
 kpt#   7, nband= 21, wtk=  0.09375, kpt=  0.4375  0.1875  0.0625 (reduced coord)
  -1.77822  -0.92132  -0.91955  -0.91882  -0.62911  -0.34633  -0.31226  -0.30511
  -0.08794  -0.08016  -0.07541   0.11739   0.15037   0.15865   0.16474   0.18481
   0.21318   0.22339   0.23108   0.24164   0.36758
 kpt#   8, nband= 21, wtk=  0.04688, kpt=  0.3125  0.3125  0.0625 (reduced coord)
  -1.77822  -0.92058  -0.92054  -0.91881  -0.62890  -0.33895  -0.31317  -0.30935
  -0.09056  -0.08479  -0.07440   0.12447   0.14324   0.14443   0.17142   0.17736
   0.20970   0.22469   0.23492   0.25591   0.38870
 kpt#   9, nband= 21, wtk=  0.09375, kpt=  0.4375  0.3125  0.0625 (reduced coord)
  -1.77820  -0.92125  -0.92052  -0.91879  -0.62774  -0.33739  -0.31169  -0.30867
  -0.09024  -0.08509  -0.07585   0.11429   0.12935   0.13829   0.16503   0.17448
   0.21122   0.22497   0.23354   0.25803   0.39119
 kpt#  10, nband= 21, wtk=  0.04688, kpt=  0.4375  0.4375  0.0625 (reduced coord)
  -1.77818  -0.92121  -0.92120  -0.91876  -0.62675  -0.33026  -0.31225  -0.31083
  -0.09088  -0.08958  -0.07523   0.10881   0.11776   0.12503   0.16521   0.16580
   0.20438   0.23537   0.23929   0.26501   0.40673
 kpt#  11, nband= 21, wtk=  0.01563, kpt=  0.1875  0.1875  0.1875 (reduced coord)
  -1.77825  -0.91963  -0.91958  -0.91958  -0.63122  -0.33957  -0.31336  -0.31336
  -0.09176  -0.09176  -0.07032   0.14072   0.16686   0.16686   0.18696   0.18696
   0.20008   0.23850   0.24587   0.24587   0.37658
 kpt#  12, nband= 21, wtk=  0.04688, kpt=  0.3125  0.1875  0.1875 (reduced coord)
  -1.77822  -0.92059  -0.91956  -0.91954  -0.62946  -0.33899  -0.31193  -0.31063
  -0.09423  -0.09114  -0.07001   0.12796   0.15078   0.16332   0.17309   0.18126
   0.19536   0.23650   0.24029   0.24459   0.37917
 kpt#  13, nband= 21, wtk=  0.04688, kpt=  0.4375  0.1875  0.1875 (reduced coord)
  -1.77821  -0.92128  -0.91953  -0.91951  -0.62819  -0.34044  -0.31089  -0.30650
  -0.09606  -0.08598  -0.07507   0.11604   0.14352   0.16008   0.16145   0.17930
   0.20070   0.23044   0.23780   0.24007   0.38113
 kpt#  14, nband= 21, wtk=  0.04688, kpt=  0.3125  0.3125  0.1875 (reduced coord)
  -1.77820  -0.92055  -0.92051  -0.91950  -0.62795  -0.33354  -0.31151  -0.30947
  -0.09726  -0.09654  -0.07328   0.12289   0.14264   0.14732   0.17001   0.17749
   0.18695   0.23381   0.24328   0.25308   0.39755
 kpt#  15, nband= 21, wtk=  0.09375, kpt=  0.4375  0.3125  0.1875 (reduced coord)
  -1.77818  -0.92121  -0.92049  -0.91947  -0.62686  -0.33135  -0.30981  -0.30814
  -0.10087  -0.09445  -0.08022   0.11427   0.13636   0.14059   0.16422   0.17713
   0.18854   0.23396   0.24134   0.25696   0.40201
 kpt#  16, nband= 21, wtk=  0.04688, kpt=  0.4375  0.4375  0.1875 (reduced coord)
  -1.77816  -0.92117  -0.92116  -0.91944  -0.62591  -0.32403  -0.31012  -0.30895
  -0.10051  -0.09979  -0.08765   0.10919   0.12513   0.13655   0.16857   0.17287
   0.18026   0.24128   0.24473   0.26546   0.41385
 kpt#  17, nband= 21, wtk=  0.01563, kpt=  0.3125  0.3125  0.3125 (reduced coord)
  -1.77817  -0.92050  -0.92046  -0.92046  -0.62658  -0.32625  -0.30906  -0.30906
  -0.10482  -0.10482  -0.08155   0.12250   0.14218   0.14218   0.15706   0.17862
   0.17862   0.24649   0.24649   0.25516   0.41040
 kpt#  18, nband= 21, wtk=  0.04688, kpt=  0.4375  0.3125  0.3125 (reduced coord)
  -1.77816  -0.92116  -0.92045  -0.92043  -0.62560  -0.32213  -0.30755  -0.30726
  -0.11057  -0.10514  -0.09195   0.11365   0.13725   0.14206   0.15267   0.17984
   0.18140   0.24480   0.25318   0.25892   0.41353
 kpt#  19, nband= 21, wtk=  0.04688, kpt=  0.4375  0.4375  0.3125 (reduced coord)
  -1.77814  -0.92112  -0.92111  -0.92041  -0.62470  -0.31468  -0.30694  -0.30625
  -0.11339  -0.11172  -0.10378   0.10842   0.12532   0.14134   0.16082   0.17960
   0.18080   0.25382   0.25577   0.26642   0.42399
 kpt#  20, nband= 21, wtk=  0.01563, kpt=  0.4375  0.4375  0.4375 (reduced coord)
  -1.77812  -0.92108  -0.92108  -0.92108  -0.62384  -0.30739  -0.30454  -0.30454
  -0.11982  -0.11982  -0.11587   0.10368   0.12548   0.12548   0.17638   0.18239
   0.18239   0.26531   0.26531   0.26796   0.43244
 Total charge density [el/Bohr^3]
,     Maximum=    1.3586E+00  at reduced coord.    0.5167    0.5167    0.5833
,Next maximum=    1.3586E+00  at reduced coord.    0.4833    0.5167    0.5833
,     Minimum=    9.9278E-04  at reduced coord.    0.0000    0.0000    0.0000
,Next minimum=    1.4677E-03  at reduced coord.    0.0167    0.0000    0.0000

--------------------------------------------------------------------------------
 Components of total free energy (in Hartree) :

    Kinetic energy  =  6.35852627833000E+01
    Hartree energy  =  2.88515159163053E+01
    XC energy       = -2.13843904112486E+01
    Ewald energy    = -1.05359510696576E+02
    PspCore energy  =  5.07018803013628E+00
    Loc. psp. energy= -1.18713047679653E+02
    NL   psp  energy=  1.60934847704638E+01
    >>>>>>>>> Etotal= -1.31856497287273E+02

 Other information on the energy :
    Total energy(eV)= -3.58799776211902E+03 ; Band energy (Ha)=  -9.3610134606E+00
--------------------------------------------------------------------------------

 Cartesian components of stress tensor (hartree/bohr^3)
  sigma(1 1)= -3.74354119E-07  sigma(3 2)=  0.00000000E+00
  sigma(2 2)= -3.74354119E-07  sigma(3 1)=  0.00000000E+00
  sigma(3 3)= -3.74354119E-07  sigma(2 1)=  0.00000000E+00

-Cartesian components of stress tensor (GPa)         [Pressure=  1.1014E-02 GPa]
- sigma(1 1)= -1.10138766E-02  sigma(3 2)=  0.00000000E+00
- sigma(2 2)= -1.10138766E-02  sigma(3 1)=  0.00000000E+00
- sigma(3 3)= -1.10138766E-02  sigma(2 1)=  0.00000000E+00

== END DATASET(S) ==============================================================
================================================================================
  
 -outvars: echo values of variables after computation  --------
     acell    7.4419883555E+00  7.4419883555E+00  7.4419883555E+00 Bohr
       amu    1.37327000E+02  4.78800000E+01  1.59994000E+01
    diemac    1.20000000E+01
   dilatmx    1.10000000E+00
      ecut    6.30000000E+01 Hartree
    ecutsm    3.00000000E+00 Hartree
    etotal   -1.3185649729E+02
     fcart   -0.0000000000E+00 -0.0000000000E+00 -0.0000000000E+00
             -0.0000000000E+00 -0.0000000000E+00 -0.0000000000E+00
             -0.0000000000E+00 -0.0000000000E+00 -0.0000000000E+00
             -0.0000000000E+00 -0.0000000000E+00 -0.0000000000E+00
             -0.0000000000E+00 -0.0000000000E+00 -0.0000000000E+00
    ionmov         2
       ixc         3
       kpt    6.25000000E-02  6.25000000E-02  6.25000000E-02
              1.87500000E-01  6.25000000E-02  6.25000000E-02
              3.12500000E-01  6.25000000E-02  6.25000000E-02
              4.37500000E-01  6.25000000E-02  6.25000000E-02
              1.87500000E-01  1.87500000E-01  6.25000000E-02
              3.12500000E-01  1.87500000E-01  6.25000000E-02
              4.37500000E-01  1.87500000E-01  6.25000000E-02
              3.12500000E-01  3.12500000E-01  6.25000000E-02
              4.37500000E-01  3.12500000E-01  6.25000000E-02
              4.37500000E-01  4.37500000E-01  6.25000000E-02
              1.87500000E-01  1.87500000E-01  1.87500000E-01
              3.12500000E-01  1.87500000E-01  1.87500000E-01
              4.37500000E-01  1.87500000E-01  1.87500000E-01
              3.12500000E-01  3.12500000E-01  1.87500000E-01
              4.37500000E-01  3.12500000E-01  1.87500000E-01
              4.37500000E-01  4.37500000E-01  1.87500000E-01
              3.12500000E-01  3.12500000E-01  3.12500000E-01
              4.37500000E-01  3.12500000E-01  3.12500000E-01
              4.37500000E-01  4.37500000E-01  3.12500000E-01
              4.37500000E-01  4.37500000E-01  4.37500000E-01
   kptrlen    5.97153458E+01
    kptopt         1
  kptrlatt    8  0  0   0  8  0   0  0  8
P    mkmem         5
     natom         5
     nband        21
     ngfft        60      60      60
      nkpt        20
     nstep        35
      nsym        48
     ntime        30
    ntypat         3
       occ    2.000000  2.000000  2.000000  2.000000  2.000000  2.000000
              2.000000  2.000000  2.000000  2.000000  2.000000  2.000000
              2.000000  2.000000  2.000000  2.000000  2.000000  2.000000
              2.000000  2.000000  0.000000
   optcell         2
    prtden         0
     prtwf         0
    shiftk    5.00000000E-01  5.00000000E-01  5.00000000E-01
   spgroup       221
    strten   -3.7435411907E-07 -3.7435411908E-07 -3.7435411907E-07
              0.0000000000E+00  0.0000000000E+00  0.0000000000E+00
    symrel    1  0  0   0  1  0   0  0  1      -1  0  0   0 -1  0   0  0 -1
             -1  0  0   0  1  0   0  0 -1       1  0  0   0 -1  0   0  0  1
             -1  0  0   0 -1  0   0  0  1       1  0  0   0  1  0   0  0 -1
              1  0  0   0 -1  0   0  0 -1      -1  0  0   0  1  0   0  0  1
              0  1  0   1  0  0   0  0  1       0 -1  0  -1  0  0   0  0 -1
              0 -1  0   1  0  0   0  0 -1       0  1  0  -1  0  0   0  0  1
              0 -1  0  -1  0  0   0  0  1       0  1  0   1  0  0   0  0 -1
              0  1  0  -1  0  0   0  0 -1       0 -1  0   1  0  0   0  0  1
              0  0  1   1  0  0   0  1  0       0  0 -1  -1  0  0   0 -1  0
              0  0 -1   1  0  0   0 -1  0       0  0  1  -1  0  0   0  1  0
              0  0 -1  -1  0  0   0  1  0       0  0  1   1  0  0   0 -1  0
              0  0  1  -1  0  0   0 -1  0       0  0 -1   1  0  0   0  1  0
              1  0  0   0  0  1   0  1  0      -1  0  0   0  0 -1   0 -1  0
             -1  0  0   0  0  1   0 -1  0       1  0  0   0  0 -1   0  1  0
             -1  0  0   0  0 -1   0  1  0       1  0  0   0  0  1   0 -1  0
              1  0  0   0  0 -1   0 -1  0      -1  0  0   0  0  1   0  1  0
              0  1  0   0  0  1   1  0  0       0 -1  0   0  0 -1  -1  0  0
              0 -1  0   0  0  1  -1  0  0       0  1  0   0  0 -1   1  0  0
              0 -1  0   0  0 -1   1  0  0       0  1  0   0  0  1  -1  0  0
              0  1  0   0  0 -1  -1  0  0       0 -1  0   0  0  1   1  0  0
              0  0  1   0  1  0   1  0  0       0  0 -1   0 -1  0  -1  0  0
              0  0 -1   0  1  0  -1  0  0       0  0  1   0 -1  0   1  0  0
              0  0 -1   0 -1  0   1  0  0       0  0  1   0  1  0  -1  0  0
              0  0  1   0 -1  0  -1  0  0       0  0 -1   0  1  0   1  0  0
    toldfe    1.00000000E-10 Hartree
     typat    1  2  3  3  3
       wtk      0.01563    0.04688    0.04688    0.04688    0.04688    0.09375
                0.09375    0.04688    0.09375    0.04688    0.01563    0.04688
                0.04688    0.04688    0.09375    0.04688    0.01563    0.04688
                0.04688    0.01563
    xangst    0.0000000000E+00  0.0000000000E+00  0.0000000000E+00
              1.9690653122E+00  1.9690653122E+00  1.9690653122E+00
              0.0000000000E+00  1.9690653122E+00  1.9690653122E+00
              1.9690653122E+00  0.0000000000E+00  1.9690653122E+00
              1.9690653122E+00  1.9690653122E+00  0.0000000000E+00
     xcart    0.0000000000E+00  0.0000000000E+00  0.0000000000E+00
              3.7209941777E+00  3.7209941777E+00  3.7209941777E+00
              0.0000000000E+00  3.7209941777E+00  3.7209941777E+00
              3.7209941777E+00  0.0000000000E+00  3.7209941777E+00
              3.7209941777E+00  3.7209941777E+00  0.0000000000E+00
      xred    0.0000000000E+00  0.0000000000E+00  0.0000000000E+00
              5.0000000000E-01  5.0000000000E-01  5.0000000000E-01
              0.0000000000E+00  5.0000000000E-01  5.0000000000E-01
              5.0000000000E-01  0.0000000000E+00  5.0000000000E-01
              5.0000000000E-01  5.0000000000E-01  0.0000000000E+00
     znucl     56.00000   22.00000    8.00000

================================================================================


- Timing analysis has been suppressed with timopt=0


-
- Proc.   0 individual time (sec): cpu=       1560.9  wall=       1560.9

================================================================================

 Calculation completed.
.Delivered    0 WARNINGs and   3 COMMENTs to log file.
+Overall time at end (sec) : cpu=       6243.7  wall=       6243.7
