
.Version 5.6.4  of ABINIT 
.(MPI version, prepared for a x86_64_linux_gcc4.3 computer) 

.Copyright (C) 1998-2008 ABINIT group . 
 ABINIT comes with ABSOLUTELY NO WARRANTY.
 It is free software, and you are welcome to redistribute it
 under certain conditions (GNU General Public License,
 see ~abinit/COPYING or http://www.gnu.org/copyleft/gpl.txt).

 ABINIT is a project of the Universite Catholique de Louvain,
 Corning Inc. and other collaborators, see ~abinit/doc/developers/contributors.txt .
 Please read ~abinit/doc/users/acknowledgments.html for suggested
 acknowledgments of the ABINIT effort.
 For more information, see http://www.abinit.org .

.Starting date : Thu  8 Jan 2009.
  
- input  file    -> perovskite-a0.in
- output file    -> perovskite-a0.out
- root for input  files -> perovskite-a0_i
- root for output files -> perovskite-a0_o


 Symmetries : space group Pm -3 m (#221); Bravais cP (primitive cubic)
================================================================================
 Values of the parameters that define the memory need of the present run
   intxc =         0  ionmov =         2    iscf =         7 xclevel =         1
  lmnmax =         4   lnmax =         4   mband =        21  mffmem =         1
P  mgfft =        50   mkmem =         5 mpssoang=         3     mpw =      7487
  mqgrid =      3001   natom =         5    nfft =    125000    nkpt =        20
  nloalg =         4  nspden =         1 nspinor =         1  nsppol =         1
    nsym =        48  n1xccc =         0  ntypat =         3  occopt =         1
================================================================================
P This job should need less than                      50.536 Mbytes of memory.
  Rough estimation (10% accuracy) of disk space for files :
  WF disk file :     47.984 Mbytes ; DEN or POT disk file :      0.956 Mbytes.
================================================================================

 -outvars: echo values of preprocessed input variables --------
     acell    7.4644182249E+00  7.4644182249E+00  7.4644182249E+00 Bohr
       amu    1.37327000E+02  4.78800000E+01  1.59994000E+01
    diemac    1.20000000E+01
   dilatmx    1.10000000E+00
      ecut    4.30000000E+01 Hartree
    ecutsm    3.00000000E+00 Hartree
    ionmov         2
       ixc         3
       kpt    6.25000000E-02  6.25000000E-02  6.25000000E-02
              1.87500000E-01  6.25000000E-02  6.25000000E-02
              3.12500000E-01  6.25000000E-02  6.25000000E-02
              4.37500000E-01  6.25000000E-02  6.25000000E-02
              1.87500000E-01  1.87500000E-01  6.25000000E-02
              3.12500000E-01  1.87500000E-01  6.25000000E-02
              4.37500000E-01  1.87500000E-01  6.25000000E-02
              3.12500000E-01  3.12500000E-01  6.25000000E-02
              4.37500000E-01  3.12500000E-01  6.25000000E-02
              4.37500000E-01  4.37500000E-01  6.25000000E-02
              1.87500000E-01  1.87500000E-01  1.87500000E-01
              3.12500000E-01  1.87500000E-01  1.87500000E-01
              4.37500000E-01  1.87500000E-01  1.87500000E-01
              3.12500000E-01  3.12500000E-01  1.87500000E-01
              4.37500000E-01  3.12500000E-01  1.87500000E-01
              4.37500000E-01  4.37500000E-01  1.87500000E-01
              3.12500000E-01  3.12500000E-01  3.12500000E-01
              4.37500000E-01  3.12500000E-01  3.12500000E-01
              4.37500000E-01  4.37500000E-01  3.12500000E-01
              4.37500000E-01  4.37500000E-01  4.37500000E-01
   kptrlen    5.97153458E+01
    kptopt         1
  kptrlatt    8  0  0   0  8  0   0  0  8
P    mkmem         5
     natom         5
     nband        21
     ngfft        50      50      50
      nkpt        20
     nstep        35
      nsym        48
     ntime        30
    ntypat         3
       occ    2.000000  2.000000  2.000000  2.000000  2.000000  2.000000
              2.000000  2.000000  2.000000  2.000000  2.000000  2.000000
              2.000000  2.000000  2.000000  2.000000  2.000000  2.000000
              2.000000  2.000000  0.000000
   optcell         2
    prtden         0
     prtwf         0
    shiftk    5.00000000E-01  5.00000000E-01  5.00000000E-01
   spgroup       221
    symrel    1  0  0   0  1  0   0  0  1      -1  0  0   0 -1  0   0  0 -1
             -1  0  0   0  1  0   0  0 -1       1  0  0   0 -1  0   0  0  1
             -1  0  0   0 -1  0   0  0  1       1  0  0   0  1  0   0  0 -1
              1  0  0   0 -1  0   0  0 -1      -1  0  0   0  1  0   0  0  1
              0  1  0   1  0  0   0  0  1       0 -1  0  -1  0  0   0  0 -1
              0 -1  0   1  0  0   0  0 -1       0  1  0  -1  0  0   0  0  1
              0 -1  0  -1  0  0   0  0  1       0  1  0   1  0  0   0  0 -1
              0  1  0  -1  0  0   0  0 -1       0 -1  0   1  0  0   0  0  1
              0  0  1   1  0  0   0  1  0       0  0 -1  -1  0  0   0 -1  0
              0  0 -1   1  0  0   0 -1  0       0  0  1  -1  0  0   0  1  0
              0  0 -1  -1  0  0   0  1  0       0  0  1   1  0  0   0 -1  0
              0  0  1  -1  0  0   0 -1  0       0  0 -1   1  0  0   0  1  0
              1  0  0   0  0  1   0  1  0      -1  0  0   0  0 -1   0 -1  0
             -1  0  0   0  0  1   0 -1  0       1  0  0   0  0 -1   0  1  0
             -1  0  0   0  0 -1   0  1  0       1  0  0   0  0  1   0 -1  0
              1  0  0   0  0 -1   0 -1  0      -1  0  0   0  0  1   0  1  0
              0  1  0   0  0  1   1  0  0       0 -1  0   0  0 -1  -1  0  0
              0 -1  0   0  0  1  -1  0  0       0  1  0   0  0 -1   1  0  0
              0 -1  0   0  0 -1   1  0  0       0  1  0   0  0  1  -1  0  0
              0  1  0   0  0 -1  -1  0  0       0 -1  0   0  0  1   1  0  0
              0  0  1   0  1  0   1  0  0       0  0 -1   0 -1  0  -1  0  0
              0  0 -1   0  1  0  -1  0  0       0  0  1   0 -1  0   1  0  0
              0  0 -1   0 -1  0   1  0  0       0  0  1   0  1  0  -1  0  0
              0  0  1   0 -1  0  -1  0  0       0  0 -1   0  1  0   1  0  0
    toldfe    1.00000000E-10 Hartree
     typat    1  2  3  3  3
       wtk      0.01563    0.04688    0.04688    0.04688    0.04688    0.09375
                0.09375    0.04688    0.09375    0.04688    0.01563    0.04688
                0.04688    0.04688    0.09375    0.04688    0.01563    0.04688
                0.04688    0.01563
    xangst    0.0000000000E+00  0.0000000000E+00  0.0000000000E+00
              1.9750000000E+00  1.9750000000E+00  1.9750000000E+00
              0.0000000000E+00  1.9750000000E+00  1.9750000000E+00
              1.9750000000E+00  0.0000000000E+00  1.9750000000E+00
              1.9750000000E+00  1.9750000000E+00  0.0000000000E+00
     xcart    0.0000000000E+00  0.0000000000E+00  0.0000000000E+00
              3.7322091124E+00  3.7322091124E+00  3.7322091124E+00
              0.0000000000E+00  3.7322091124E+00  3.7322091124E+00
              3.7322091124E+00  0.0000000000E+00  3.7322091124E+00
              3.7322091124E+00  3.7322091124E+00  0.0000000000E+00
      xred    0.0000000000E+00  0.0000000000E+00  0.0000000000E+00
              5.0000000000E-01  5.0000000000E-01  5.0000000000E-01
              0.0000000000E+00  5.0000000000E-01  5.0000000000E-01
              5.0000000000E-01  0.0000000000E+00  5.0000000000E-01
              5.0000000000E-01  5.0000000000E-01  0.0000000000E+00
     znucl     56.00000   22.00000    8.00000

================================================================================

 chkinp: Checking input parameters for consistency.

================================================================================
== DATASET  1 ==================================================================

 Real(R)+Recip(G) space primitive vectors, cartesian coordinates (Bohr,Bohr^-1):
 R(1)=  7.4644182  0.0000000  0.0000000  G(1)=  0.1339689  0.0000000  0.0000000
 R(2)=  0.0000000  7.4644182  0.0000000  G(2)=  0.0000000  0.1339689  0.0000000
 R(3)=  0.0000000  0.0000000  7.4644182  G(3)=  0.0000000  0.0000000  0.1339689
 Unit cell volume ucvol=  4.1589902E+02 bohr^3
 Angles (23,13,12)=  9.00000000E+01  9.00000000E+01  9.00000000E+01 degrees

 getcut: wavevector=  0.0000  0.0000  0.0000  ngfft=  50  50  50
         ecut(hartree)=     52.030   => boxcut(ratio)=   2.06292

--- Pseudopotential description ------------------------------------------------
- pspini: atom type   1  psp file is 56ba.psp.mod
- pspatm: opening atomic psp file    56ba.psp.mod
 Barium.ion 5s2.5p6.6s0.5d0 rcs=rcp=rcd=1.7 ecut=22/28
  56.00000  10.00000    940000                znucl, zion, pspdat
    4    3    2    2      2001   0.00000      pspcod,pspxc,lmax,lloc,mmax,r2well
    0   0.000   0.000    2   1.6965489        l,e99.0,e99.9,nproj,rcpsp
   0.00000000   0.00000000   0.00000000   0.00000000     rms, ekb1, ekb2, epsatm
    1   0.000   0.000    2   1.6965489        l,e99.0,e99.9,nproj,rcpsp
   0.00000000   0.00000000   0.00000000   0.00000000     rms, ekb1, ekb2, epsatm
    2   0.000   0.000    0   1.6965489        l,e99.0,e99.9,nproj,rcpsp
   0.00000000   0.00000000   0.00000000   0.00000000     rms, ekb1, ekb2, epsatm
    0.00000000000000    0.00000000000000    0.00000000000000   rchrg,fchrg,qchrg
 pspatm: epsatm=   43.25917021
         --- l  ekb(1:nproj) -->
             0   -9.646692   27.266828
             1   -6.938476   21.148499
 pspatm: atomic psp has been read  and splines computed

- pspini: atom type   2  psp file is 22ti.psp.mod
- pspatm: opening atomic psp file    22ti.psp.mod
 Titane.ion 3s2.3p6.4s0.3d2 rcd=1.65, rcs=rc0=1.25, ecut 32/54
  22.00000  12.00000    940000                znucl, zion, pspdat
    4    3    2    2      2001   0.00000      pspcod,pspxc,lmax,lloc,mmax,r2well
    0   0.000   0.000    2   1.2533577        l,e99.0,e99.9,nproj,rcpsp
   0.00000000   0.00000000   0.00000000   0.00000000     rms, ekb1, ekb2, epsatm
    1   0.000   0.000    2   1.2533577        l,e99.0,e99.9,nproj,rcpsp
   0.00000000   0.00000000   0.00000000   0.00000000     rms, ekb1, ekb2, epsatm
    2   0.000   0.000    0   1.6491622        l,e99.0,e99.9,nproj,rcpsp
   0.00000000   0.00000000   0.00000000   0.00000000     rms, ekb1, ekb2, epsatm
    0.00000000000000    0.00000000000000    0.00000000000000   rchrg,fchrg,qchrg
 pspatm: epsatm=    4.67708954
         --- l  ekb(1:nproj) -->
             0    9.517316   -2.344682
             1    5.011406   -0.741179
 pspatm: atomic psp has been read  and splines computed

- pspini: atom type   3  psp file is 8o.phoney.mod
- pspatm: opening atomic psp file    8o.phoney.mod
 Compromise psp for oxygen with rc=1.5 ec=25 double reference
   8.00000   6.00000    980710                znucl, zion, pspdat
    5    3    1    1       600   0.00000      pspcod,pspxc,lmax,lloc,mmax,r2well
    1.000000E-06    3.075239E-02              r1 and al (Hamman grid)
    0   0.000   0.000    2   1.4915765        l,e99.0,e99.9,nproj,rcpsp
   0.00000000   0.00000000   0.00000000   0.00000000     rms, ekb1, ekb2, epsatm
    1   0.000   0.000    0   1.4915765        l,e99.0,e99.9,nproj,rcpsp
   0.00000000   0.00000000   0.00000000   0.00000000     rms, ekb1, ekb2, epsatm
    0.00000000000000    0.00000000000000    0.00000000000000   rchrg,fchrg,qchrg
 pspatm: epsatm=    1.43569736
         --- l  ekb(1:nproj) -->
             0    5.763361   -1.798421
 pspatm: atomic psp has been read  and splines computed

   2.08973407E+03                                ecore*ucvol(ha*bohr**3)
--------------------------------------------------------------------------------

P newkpt: treating     21 bands with npw=    7421 for ikpt=   1 by node    0
P newkpt: treating     21 bands with npw=    7432 for ikpt=   2 by node    0
P newkpt: treating     21 bands with npw=    7453 for ikpt=   3 by node    0
P newkpt: treating     21 bands with npw=    7456 for ikpt=   4 by node    0
P newkpt: treating     21 bands with npw=    7428 for ikpt=   5 by node    0
P newkpt: treating     21 bands with npw=    7466 for ikpt=   6 by node    1
P newkpt: treating     21 bands with npw=    7468 for ikpt=   7 by node    1
P newkpt: treating     21 bands with npw=    7456 for ikpt=   8 by node    1
P newkpt: treating     21 bands with npw=    7465 for ikpt=   9 by node    1
P newkpt: treating     21 bands with npw=    7460 for ikpt=  10 by node    1
P newkpt: treating     21 bands with npw=    7463 for ikpt=  11 by node    2
P newkpt: treating     21 bands with npw=    7455 for ikpt=  12 by node    2
P newkpt: treating     21 bands with npw=    7463 for ikpt=  13 by node    2
P newkpt: treating     21 bands with npw=    7464 for ikpt=  14 by node    2
P newkpt: treating     21 bands with npw=    7447 for ikpt=  15 by node    2
P newkpt: treating     21 bands with npw=    7453 for ikpt=  16 by node    3
P newkpt: treating     21 bands with npw=    7451 for ikpt=  17 by node    3
P newkpt: treating     21 bands with npw=    7461 for ikpt=  18 by node    3
P newkpt: treating     21 bands with npw=    7471 for ikpt=  19 by node    3
P newkpt: treating     21 bands with npw=    7487 for ikpt=  20 by node    3

 setup2: Arith. and geom. avg. npw (full set) are    7457.094    7457.083

================================================================================

 BROYDEN STEP NUMBER   0  ------------------------------------------------------

     iter   Etot(hartree)      deltaE(h)  residm     vres2    diffor    maxfor
 ETOT  1  -130.96632633495    -1.310E+02 6.154E-01 1.490E+03 0.000E+00 0.000E+00
 ETOT  2  -131.79477107791    -8.284E-01 2.110E-01 3.467E+02 0.000E+00 0.000E+00
 ETOT  3  -131.82969258176    -3.492E-02 3.537E-02 3.641E+01 0.000E+00 0.000E+00
 ETOT  4  -131.83710199921    -7.409E-03 1.606E-02 1.305E+01 0.000E+00 0.000E+00
 ETOT  5  -131.84097764721    -3.876E-03 6.960E-03 3.371E+00 0.000E+00 0.000E+00
 ETOT  6  -131.84223319444    -1.256E-03 4.466E-03 4.291E-02 0.000E+00 0.000E+00
 ETOT  7  -131.84246440534    -2.312E-04 2.014E-03 2.252E-01 0.000E+00 0.000E+00
 ETOT  8  -131.84265118655    -1.868E-04 1.964E-03 1.183E-02 0.000E+00 0.000E+00
 ETOT  9  -131.84271012726    -5.894E-05 1.212E-03 5.439E-03 0.000E+00 0.000E+00
 ETOT 10  -131.84273464157    -2.451E-05 1.770E-03 6.392E-03 0.000E+00 0.000E+00
 ETOT 11  -131.84274781587    -1.317E-05 1.162E-03 5.213E-04 0.000E+00 0.000E+00
 ETOT 12  -131.84275359537    -5.780E-06 1.592E-03 1.452E-03 0.000E+00 0.000E+00
 ETOT 13  -131.84275662771    -3.032E-06 1.070E-03 1.055E-04 0.000E+00 0.000E+00
 ETOT 14  -131.84275793944    -1.312E-06 1.385E-03 6.240E-04 0.000E+00 0.000E+00
 ETOT 15  -131.84275878548    -8.460E-07 9.386E-04 1.484E-04 0.000E+00 0.000E+00
 ETOT 16  -131.84275917262    -3.871E-07 1.159E-03 7.851E-05 0.000E+00 0.000E+00
 ETOT 17  -131.84275937219    -1.996E-07 7.869E-04 7.587E-05 0.000E+00 0.000E+00
 ETOT 18  -131.84275948239    -1.102E-07 9.357E-04 2.472E-05 0.000E+00 0.000E+00
 ETOT 19  -131.84275953588    -5.348E-08 6.350E-04 2.910E-05 0.000E+00 0.000E+00
 ETOT 20  -131.84275956502    -2.915E-08 7.899E-04 2.578E-05 0.000E+00 0.000E+00
 ETOT 21  -131.84275958100    -1.598E-08 4.968E-04 2.107E-05 0.000E+00 0.000E+00
 ETOT 22  -131.84275958976    -8.763E-09 7.061E-04 1.100E-05 0.000E+00 0.000E+00
 ETOT 23  -131.84275959189    -2.122E-09 4.050E-04 1.979E-05 0.000E+00 0.000E+00
 ETOT 24  -131.84275959602    -4.133E-09 6.136E-04 1.062E-05 0.000E+00 0.000E+00
 ETOT 25  -131.84275959776    -1.740E-09 3.479E-04 6.560E-06 0.000E+00 0.000E+00
 ETOT 26  -131.84275959890    -1.141E-09 5.202E-04 3.353E-06 0.000E+00 0.000E+00
 ETOT 27  -131.84275959947    -5.694E-10 4.778E-04 3.021E-06 0.000E+00 0.000E+00
 ETOT 28  -131.84275960023    -7.602E-10 4.319E-04 1.548E-07 0.000E+00 0.000E+00
 ETOT 29  -131.84275960036    -1.356E-10 4.235E-04 5.622E-08 0.000E+00 0.000E+00
 ETOT 30  -131.84275960044    -7.606E-11 3.524E-04 3.268E-09 0.000E+00 0.000E+00
 ETOT 31  -131.84275960048    -3.919E-11 3.578E-04 1.270E-09 0.000E+00 0.000E+00

 At SCF step   31, etot is converged :
  for the second time, diff in etot=  3.919E-11 < toldfe=  1.000E-10

 Cartesian components of stress tensor (hartree/bohr^3)
  sigma(1 1)=  5.58928793E-05  sigma(3 2)=  0.00000000E+00
  sigma(2 2)=  5.58928793E-05  sigma(3 1)=  0.00000000E+00
  sigma(3 3)=  5.58928793E-05  sigma(2 1)=  0.00000000E+00

 Unit cell characteristics :
  acell=  7.4644182249E+00  7.4644182249E+00  7.4644182249E+00
  rprim=  1.0000000000E+00  0.0000000000E+00  0.0000000000E+00
          0.0000000000E+00  1.0000000000E+00  0.0000000000E+00
          0.0000000000E+00  0.0000000000E+00  1.0000000000E+00
  ucvol=  4.1589901681E+02 Bohr^3
  lengths=  7.4644182249E+00  7.4644182249E+00  7.4644182249E+00 Bohr
  angles (23,13,12)=  90.00000000  90.00000000  90.00000000 degrees
 Cartesian coordinates (bohr)
  0.00000000000000E+00  0.00000000000000E+00  0.00000000000000E+00
  3.73220911244915E+00  3.73220911244915E+00  3.73220911244915E+00
  0.00000000000000E+00  3.73220911244915E+00  3.73220911244915E+00
  3.73220911244915E+00  0.00000000000000E+00  3.73220911244915E+00
  3.73220911244915E+00  3.73220911244915E+00  0.00000000000000E+00
 Cartesian forces (hart/bohr); max,rms= 0.00000E+00 0.00000E+00 (free atoms)
 -0.00000000000000E+00 -0.00000000000000E+00 -0.00000000000000E+00
 -0.00000000000000E+00 -0.00000000000000E+00 -0.00000000000000E+00
 -0.00000000000000E+00 -0.00000000000000E+00 -0.00000000000000E+00
 -0.00000000000000E+00 -0.00000000000000E+00 -0.00000000000000E+00
 -0.00000000000000E+00 -0.00000000000000E+00 -0.00000000000000E+00

 At the end of Broyden step  0, total energy= -1.31842759600480E+02 Ha.


 BROYDEN STEP NUMBER   1  ------------------------------------------------------

     iter   Etot(hartree)      deltaE(h)  residm     vres2    diffor    maxfor
 ETOT  1  -131.84162070482    -1.318E+02 6.926E-01 1.562E+01 0.000E+00 0.000E+00
 ETOT  2  -131.84213008432    -5.094E-04 2.854E-02 4.932E+00 0.000E+00 0.000E+00
 ETOT  3  -131.84241800910    -2.879E-04 2.163E-04 1.806E+00 0.000E+00 0.000E+00
 ETOT  4  -131.84281980880    -4.018E-04 2.550E-04 1.102E-01 0.000E+00 0.000E+00
 ETOT  5  -131.84283939934    -1.959E-05 1.141E-03 1.106E-02 0.000E+00 0.000E+00
 ETOT  6  -131.84284001277    -6.134E-07 1.984E-04 8.968E-03 0.000E+00 0.000E+00
 ETOT  7  -131.84284134385    -1.331E-06 1.311E-04 3.441E-03 0.000E+00 0.000E+00
 ETOT  8  -131.84284137533    -3.147E-08 1.673E-04 4.219E-03 0.000E+00 0.000E+00
 ETOT  9  -131.84284193759    -5.623E-07 9.997E-05 4.335E-04 0.000E+00 0.000E+00
 ETOT 10  -131.84284200829    -7.070E-08 1.416E-04 7.621E-06 0.000E+00 0.000E+00
 ETOT 11  -131.84284200731     9.791E-10 1.004E-04 2.338E-05 0.000E+00 0.000E+00
 ETOT 12  -131.84284201142    -4.108E-09 1.196E-04 4.016E-07 0.000E+00 0.000E+00
 ETOT 13  -131.84284201145    -3.794E-11 1.094E-04 4.883E-07 0.000E+00 0.000E+00
 ETOT 14  -131.84284201156    -1.022E-10 1.008E-04 1.309E-07 0.000E+00 0.000E+00
 ETOT 15  -131.84284201148     7.464E-11 7.459E-05 8.354E-07 0.000E+00 0.000E+00
 ETOT 16  -131.84284201144     3.945E-11 3.894E-04 1.239E-06 0.000E+00 0.000E+00

 At SCF step   16, etot is converged :
  for the second time, diff in etot=  3.945E-11 < toldfe=  1.000E-10

 Cartesian components of stress tensor (hartree/bohr^3)
  sigma(1 1)=  2.29848594E-05  sigma(3 2)=  0.00000000E+00
  sigma(2 2)=  2.29848594E-05  sigma(3 1)=  0.00000000E+00
  sigma(3 3)=  2.29848594E-05  sigma(2 1)=  0.00000000E+00

 Unit cell characteristics :
  acell=  7.4519019901E+00  7.4519019901E+00  7.4519019901E+00
  rprim=  1.0000000000E+00  0.0000000000E+00  0.0000000000E+00
          0.0000000000E+00  1.0000000000E+00  0.0000000000E+00
          0.0000000000E+00  0.0000000000E+00  1.0000000000E+00
  ucvol=  4.1381040147E+02 Bohr^3
  lengths=  7.4519019901E+00  7.4519019901E+00  7.4519019901E+00 Bohr
  angles (23,13,12)=  90.00000000  90.00000000  90.00000000 degrees
 Cartesian coordinates (bohr)
  0.00000000000000E+00  0.00000000000000E+00  0.00000000000000E+00
  3.72595099504626E+00  3.72595099504626E+00  3.72595099504626E+00
  0.00000000000000E+00  3.72595099504626E+00  3.72595099504626E+00
  3.72595099504626E+00  0.00000000000000E+00  3.72595099504626E+00
  3.72595099504626E+00  3.72595099504626E+00  0.00000000000000E+00
 Cartesian forces (hart/bohr); max,rms= 0.00000E+00 0.00000E+00 (free atoms)
 -0.00000000000000E+00 -0.00000000000000E+00 -0.00000000000000E+00
 -0.00000000000000E+00 -0.00000000000000E+00 -0.00000000000000E+00
 -0.00000000000000E+00 -0.00000000000000E+00 -0.00000000000000E+00
 -0.00000000000000E+00 -0.00000000000000E+00 -0.00000000000000E+00
 -0.00000000000000E+00 -0.00000000000000E+00 -0.00000000000000E+00

 At the end of Broyden step  1, total energy= -1.31842842011442E+02 Ha.


 BROYDEN STEP NUMBER   2  ------------------------------------------------------

     iter   Etot(hartree)      deltaE(h)  residm     vres2    diffor    maxfor
 ETOT  1  -131.84227605948    -1.318E+02 4.222E-01 7.491E+00 0.000E+00 0.000E+00
 ETOT  2  -131.84253511733    -2.591E-04 7.144E-03 2.256E+00 0.000E+00 0.000E+00
 ETOT  3  -131.84266401458    -1.289E-04 3.297E-04 8.381E-01 0.000E+00 0.000E+00
 ETOT  4  -131.84284799544    -1.840E-04 1.732E-04 5.014E-02 0.000E+00 0.000E+00
 ETOT  5  -131.84285700563    -9.010E-06 6.410E-04 5.375E-03 0.000E+00 0.000E+00
 ETOT  6  -131.84285730190    -2.963E-07 1.527E-04 4.067E-03 0.000E+00 0.000E+00
 ETOT  7  -131.84285789385    -5.919E-07 7.090E-05 1.549E-03 0.000E+00 0.000E+00
 ETOT  8  -131.84285790171    -7.866E-09 1.509E-04 1.907E-03 0.000E+00 0.000E+00
 ETOT  9  -131.84285816067    -2.590E-07 6.818E-05 2.121E-04 0.000E+00 0.000E+00
 ETOT 10  -131.84285819585    -3.518E-08 1.472E-04 7.452E-07 0.000E+00 0.000E+00
 ETOT 11  -131.84285819522     6.256E-10 6.587E-05 1.023E-05 0.000E+00 0.000E+00
 ETOT 12  -131.84285819698    -1.755E-09 1.429E-04 1.159E-07 0.000E+00 0.000E+00
 ETOT 13  -131.84285819698    -1.251E-12 6.323E-05 1.934E-07 0.000E+00 0.000E+00
 ETOT 14  -131.84285819702    -3.658E-11 1.376E-04 1.811E-07 0.000E+00 0.000E+00

 At SCF step   14, etot is converged :
  for the second time, diff in etot=  3.658E-11 < toldfe=  1.000E-10

 Cartesian components of stress tensor (hartree/bohr^3)
  sigma(1 1)= -5.13722065E-07  sigma(3 2)=  0.00000000E+00
  sigma(2 2)= -5.13722065E-07  sigma(3 1)=  0.00000000E+00
  sigma(3 3)= -5.13722065E-07  sigma(2 1)=  0.00000000E+00

 Unit cell characteristics :
  acell=  7.4432342348E+00  7.4432342348E+00  7.4432342348E+00
  rprim=  1.0000000000E+00  0.0000000000E+00  0.0000000000E+00
          0.0000000000E+00  1.0000000000E+00  0.0000000000E+00
          0.0000000000E+00  0.0000000000E+00  1.0000000000E+00
  ucvol=  4.1236809712E+02 Bohr^3
  lengths=  7.4432342348E+00  7.4432342348E+00  7.4432342348E+00 Bohr
  angles (23,13,12)=  90.00000000  90.00000000  90.00000000 degrees
 Cartesian coordinates (bohr)
  0.00000000000000E+00  0.00000000000000E+00  0.00000000000000E+00
  3.72161711738651E+00  3.72161711738651E+00  3.72161711738651E+00
  0.00000000000000E+00  3.72161711738651E+00  3.72161711738651E+00
  3.72161711738651E+00  0.00000000000000E+00  3.72161711738651E+00
  3.72161711738651E+00  3.72161711738651E+00  0.00000000000000E+00
 Cartesian forces (hart/bohr); max,rms= 0.00000E+00 0.00000E+00 (free atoms)
 -0.00000000000000E+00 -0.00000000000000E+00 -0.00000000000000E+00
 -0.00000000000000E+00 -0.00000000000000E+00 -0.00000000000000E+00
 -0.00000000000000E+00 -0.00000000000000E+00 -0.00000000000000E+00
 -0.00000000000000E+00 -0.00000000000000E+00 -0.00000000000000E+00
 -0.00000000000000E+00 -0.00000000000000E+00 -0.00000000000000E+00

 At the end of Broyden step  2, total energy= -1.31842858197016E+02 Ha.


 BROYDEN STEP NUMBER   3  ------------------------------------------------------

     iter   Etot(hartree)      deltaE(h)  residm     vres2    diffor    maxfor
 ETOT  1  -131.84285792481    -1.318E+02 1.316E-04 3.617E-03 0.000E+00 0.000E+00
 ETOT  2  -131.84285803577    -1.110E-07 1.254E-04 1.164E-03 0.000E+00 0.000E+00
 ETOT  3  -131.84285810166    -6.589E-08 5.414E-05 4.489E-04 0.000E+00 0.000E+00
 ETOT  4  -131.84285819931    -9.765E-08 1.183E-04 2.943E-05 0.000E+00 0.000E+00
 ETOT  5  -131.84285820438    -5.065E-09 5.076E-05 2.919E-06 0.000E+00 0.000E+00
 ETOT  6  -131.84285820454    -1.567E-10 1.111E-04 2.373E-06 0.000E+00 0.000E+00
 ETOT  7  -131.84285820487    -3.338E-10 4.748E-05 9.436E-07 0.000E+00 0.000E+00
 ETOT  8  -131.84285820485     1.737E-11 1.038E-04 1.272E-06 0.000E+00 0.000E+00
 ETOT  9  -131.84285820501    -1.619E-10 4.420E-05 1.603E-07 0.000E+00 0.000E+00
 ETOT 10  -131.84285820505    -3.701E-11 9.645E-05 1.874E-09 0.000E+00 0.000E+00
 ETOT 11  -131.84285820504     6.594E-12 4.098E-05 5.660E-09 0.000E+00 0.000E+00

 At SCF step   11, etot is converged :
  for the second time, diff in etot=  6.594E-12 < toldfe=  1.000E-10

 Cartesian components of stress tensor (hartree/bohr^3)
  sigma(1 1)=  4.16887325E-09  sigma(3 2)=  0.00000000E+00
  sigma(2 2)=  4.16887327E-09  sigma(3 1)=  0.00000000E+00
  sigma(3 3)=  4.16887325E-09  sigma(2 1)=  0.00000000E+00

 Unit cell characteristics :
  acell=  7.4434230817E+00  7.4434230817E+00  7.4434230817E+00
  rprim=  1.0000000000E+00  0.0000000000E+00  0.0000000000E+00
          0.0000000000E+00  1.0000000000E+00  0.0000000000E+00
          0.0000000000E+00  0.0000000000E+00  1.0000000000E+00
  ucvol=  4.1239948526E+02 Bohr^3
  lengths=  7.4434230817E+00  7.4434230817E+00  7.4434230817E+00 Bohr
  angles (23,13,12)=  90.00000000  90.00000000  90.00000000 degrees
 Cartesian coordinates (bohr)
  0.00000000000000E+00  0.00000000000000E+00  0.00000000000000E+00
  3.72171154085959E+00  3.72171154085958E+00  3.72171154085959E+00
  0.00000000000000E+00  3.72171154085958E+00  3.72171154085959E+00
  3.72171154085959E+00  0.00000000000000E+00  3.72171154085959E+00
  3.72171154085959E+00  3.72171154085958E+00  0.00000000000000E+00
 Cartesian forces (hart/bohr); max,rms= 0.00000E+00 0.00000E+00 (free atoms)
 -0.00000000000000E+00 -0.00000000000000E+00 -0.00000000000000E+00
 -0.00000000000000E+00 -0.00000000000000E+00 -0.00000000000000E+00
 -0.00000000000000E+00 -0.00000000000000E+00 -0.00000000000000E+00
 -0.00000000000000E+00 -0.00000000000000E+00 -0.00000000000000E+00
 -0.00000000000000E+00 -0.00000000000000E+00 -0.00000000000000E+00

 At the end of Broyden step  3, total energy= -1.31842858205044E+02 Ha.


 At Broyd/MD step   3, gradients are converged :
  max grad (force/stress) = 4.1689E-07 < tolmxf= 5.0000E-05 ha/bohr (free atoms)

================================================================================

 ----iterations are completed or convergence reached----

 Mean square residual over all n,k,spin=   1.7265E-07; max=  4.0979E-05
   0.0625  0.0625  0.0625    1  2.23571E-06 kpt; spin; max resid(k); each band:
 3.76E-17 1.02E-16 1.19E-16 1.14E-16 7.58E-18 4.29E-17 4.58E-16 6.09E-16
 1.39E-16 1.33E-16 1.05E-16 9.31E-15 4.19E-15 5.97E-15 3.21E-14 4.34E-14
 9.02E-19 1.36E-15 4.09E-14 1.75E-13 2.24E-06
   0.1875  0.0625  0.0625    1  5.23219E-07 kpt; spin; max resid(k); each band:
 4.12E-17 1.25E-16 1.06E-16 1.31E-16 9.19E-18 8.71E-17 5.53E-16 2.01E-16
 6.06E-17 7.85E-17 7.71E-17 4.84E-15 4.09E-15 3.51E-15 1.67E-14 5.17E-14
 1.22E-14 1.28E-14 5.57E-14 1.11E-14 5.23E-07
   0.3125  0.0625  0.0625    1  3.14468E-12 kpt; spin; max resid(k); each band:
 4.55E-17 1.16E-16 1.04E-16 1.24E-16 9.93E-18 3.44E-16 5.16E-16 1.63E-16
 2.97E-16 2.13E-16 2.72E-16 1.58E-14 4.93E-15 2.25E-16 4.85E-14 2.60E-14
 1.80E-14 4.94E-15 1.90E-14 1.54E-14 3.14E-12
   0.4375  0.0625  0.0625    1  3.89207E-13 kpt; spin; max resid(k); each band:
 4.88E-17 8.63E-17 1.03E-16 1.13E-16 1.08E-17 2.36E-16 4.95E-16 1.17E-16
 4.04E-16 2.19E-16 2.62E-16 2.95E-14 1.37E-15 2.80E-15 2.82E-14 2.12E-14
 2.76E-14 1.06E-14 1.15E-14 4.42E-15 3.89E-13
   0.1875  0.1875  0.0625    1  4.95649E-06 kpt; spin; max resid(k); each band:
 4.46E-17 1.15E-16 1.35E-16 1.13E-16 9.32E-18 7.89E-17 2.92E-16 3.08E-16
 1.08E-16 5.23E-17 1.30E-16 5.16E-15 2.14E-14 6.21E-15 2.24E-14 3.93E-14
 6.67E-15 7.68E-15 3.44E-14 8.49E-15 4.96E-06
   0.3125  0.1875  0.0625    1  4.43144E-08 kpt; spin; max resid(k); each band:
 4.87E-17 1.12E-16 1.23E-16 1.13E-16 8.91E-18 3.66E-16 2.89E-16 1.45E-16
 2.21E-16 1.87E-16 2.57E-16 7.01E-15 3.14E-14 1.05E-14 9.00E-15 5.55E-14
 3.43E-15 3.44E-15 3.28E-14 8.41E-15 4.43E-08
   0.4375  0.1875  0.0625    1  7.82393E-13 kpt; spin; max resid(k); each band:
 5.21E-17 8.44E-17 1.70E-16 1.11E-16 8.48E-18 2.88E-16 3.73E-16 2.14E-16
 2.77E-16 1.97E-16 2.12E-16 1.82E-14 8.81E-14 7.36E-15 3.99E-15 8.08E-14
 4.23E-15 6.50E-15 8.85E-15 2.05E-14 7.82E-13
   0.3125  0.3125  0.0625    1  5.01032E-06 kpt; spin; max resid(k); each band:
 5.29E-17 1.03E-16 1.14E-16 1.08E-16 7.12E-18 3.74E-16 1.79E-16 1.42E-16
 1.72E-16 1.48E-16 5.87E-17 3.87E-15 3.85E-14 4.85E-14 3.77E-15 3.50E-14
 5.21E-15 1.11E-14 1.64E-15 2.08E-15 5.01E-06
   0.4375  0.3125  0.0625    1  3.23612E-07 kpt; spin; max resid(k); each band:
 5.70E-17 9.01E-17 1.00E-16 1.07E-16 8.37E-18 1.67E-16 1.59E-16 3.49E-16
 1.57E-16 8.72E-17 5.60E-17 1.49E-14 4.25E-14 5.49E-14 3.57E-15 8.56E-14
 6.97E-15 2.57E-15 1.84E-15 6.17E-15 3.24E-07
   0.4375  0.4375  0.0625    1  4.13628E-07 kpt; spin; max resid(k); each band:
 5.92E-17 8.04E-17 7.94E-17 1.05E-16 5.40E-18 1.88E-16 1.30E-16 3.46E-16
 2.97E-17 3.92E-17 5.89E-17 1.16E-14 8.20E-14 3.39E-14 1.21E-14 4.49E-14
 7.67E-15 1.54E-15 3.84E-15 1.42E-15 4.14E-07
   0.1875  0.1875  0.1875    1  1.88728E-06 kpt; spin; max resid(k); each band:
 4.79E-17 9.66E-17 1.90E-16 1.69E-16 8.47E-18 5.15E-17 2.92E-16 2.43E-16
 1.47E-16 1.20E-16 9.06E-17 4.86E-15 7.96E-15 7.22E-15 5.38E-14 4.79E-14
 2.57E-14 9.18E-19 3.53E-14 3.79E-14 1.89E-06
   0.3125  0.1875  0.1875    1  3.89312E-07 kpt; spin; max resid(k); each band:
 5.18E-17 1.06E-16 1.05E-16 1.87E-16 7.49E-18 1.83E-16 2.30E-16 1.40E-16
 3.62E-16 1.25E-16 7.61E-17 4.53E-15 3.93E-14 1.30E-14 1.98E-14 8.49E-14
 8.45E-16 9.74E-15 8.07E-15 7.16E-15 3.89E-07
   0.4375  0.1875  0.1875    1  2.62780E-10 kpt; spin; max resid(k); each band:
 5.45E-17 9.27E-17 1.16E-16 1.55E-16 7.09E-18 3.12E-16 2.23E-16 1.48E-16
 5.14E-16 9.10E-17 3.85E-17 1.42E-14 8.83E-14 5.51E-15 1.27E-14 7.63E-14
 8.54E-15 7.42E-15 7.94E-15 4.23E-15 2.63E-10
   0.3125  0.3125  0.1875    1  1.30079E-05 kpt; spin; max resid(k); each band:
 5.59E-17 9.72E-17 1.15E-16 1.25E-16 5.99E-18 2.10E-16 1.74E-16 1.20E-16
 2.06E-16 3.45E-16 7.12E-18 4.70E-15 3.15E-14 3.70E-14 9.17E-15 4.13E-14
 9.27E-15 6.80E-15 2.97E-15 5.13E-15 1.30E-05
   0.4375  0.3125  0.1875    1  8.59168E-08 kpt; spin; max resid(k); each band:
 5.85E-17 8.77E-17 1.08E-16 1.44E-16 6.99E-18 3.06E-16 1.59E-16 3.04E-16
 2.46E-16 6.77E-17 3.35E-17 1.48E-14 5.92E-14 5.04E-14 5.61E-15 7.14E-14
 1.81E-14 2.39E-15 1.53E-15 4.44E-15 8.59E-08
   0.4375  0.4375  0.1875    1  6.51271E-07 kpt; spin; max resid(k); each band:
 6.04E-17 7.92E-17 7.83E-17 1.51E-16 4.59E-18 1.84E-16 1.54E-16 3.10E-16
 2.21E-16 1.04E-16 1.80E-16 4.90E-15 4.02E-14 9.39E-14 1.68E-14 1.85E-14
 3.86E-14 6.69E-16 2.78E-16 4.18E-16 6.51E-07
   0.3125  0.3125  0.3125    1  8.01802E-07 kpt; spin; max resid(k); each band:
 5.95E-17 8.17E-17 1.12E-16 1.47E-16 5.02E-18 6.22E-17 1.74E-16 1.46E-16
 2.81E-16 2.48E-16 7.04E-17 2.55E-15 8.76E-14 5.15E-14 2.07E-14 2.10E-14
 2.48E-14 7.46E-15 5.93E-15 3.38E-18 8.02E-07
   0.4375  0.3125  0.3125    1  4.09788E-05 kpt; spin; max resid(k); each band:
 6.16E-17 7.90E-17 9.37E-17 9.84E-17 4.71E-18 1.97E-16 1.86E-16 1.94E-16
 3.66E-16 1.12E-16 1.40E-16 2.29E-15 2.86E-14 9.06E-14 9.34E-14 2.42E-14
 2.04E-14 3.70E-15 5.07E-16 3.94E-16 4.10E-05
   0.4375  0.4375  0.3125    1  1.20309E-06 kpt; spin; max resid(k); each band:
 6.40E-17 7.64E-17 7.66E-17 1.03E-16 2.75E-18 2.82E-16 1.67E-16 2.76E-16
 2.92E-16 1.59E-16 2.32E-16 4.77E-15 3.69E-14 7.09E-14 4.85E-14 3.20E-14
 7.00E-14 7.43E-16 1.40E-15 1.21E-16 1.20E-06
   0.4375  0.4375  0.4375    1  7.69907E-13 kpt; spin; max resid(k); each band:
 6.60E-17 7.46E-17 7.46E-17 7.59E-17 6.72E-19 7.04E-17 2.17E-16 1.64E-16
 2.65E-16 2.31E-16 1.25E-16 2.01E-16 2.37E-14 3.69E-14 2.45E-14 1.87E-14
 2.37E-14 1.06E-16 1.62E-16 1.71E-18 7.70E-13
 reduced coordinates (array xred) for    5 atoms
       0.000000000000      0.000000000000      0.000000000000
       0.500000000000      0.500000000000      0.500000000000
       0.000000000000      0.500000000000      0.500000000000
       0.500000000000      0.000000000000      0.500000000000
       0.500000000000      0.500000000000      0.000000000000
 rms dE/dt=  0.0000E+00; max dE/dt=  0.0000E+00; dE/dt below (all hartree)
    1       0.000000000000      0.000000000000      0.000000000000
    2       0.000000000000      0.000000000000      0.000000000000
    3       0.000000000000      0.000000000000      0.000000000000
    4       0.000000000000      0.000000000000      0.000000000000
    5       0.000000000000      0.000000000000      0.000000000000

 cartesian coordinates (angstrom) at end:
    1      0.00000000000000     0.00000000000000     0.00000000000000
    2      1.97500000000000     1.97500000000000     1.97500000000000
    3      0.00000000000000     1.97500000000000     1.97500000000000
    4      1.97500000000000     0.00000000000000     1.97500000000000
    5      1.97500000000000     1.97500000000000     0.00000000000000

 cartesian forces (hartree/bohr) at end:
    1     -0.00000000000000    -0.00000000000000    -0.00000000000000
    2     -0.00000000000000    -0.00000000000000    -0.00000000000000
    3     -0.00000000000000    -0.00000000000000    -0.00000000000000
    4     -0.00000000000000    -0.00000000000000    -0.00000000000000
    5     -0.00000000000000    -0.00000000000000    -0.00000000000000
 frms,max,avg= 0.0000000E+00 0.0000000E+00   0.000E+00  0.000E+00  0.000E+00 h/b

 cartesian forces (eV/Angstrom) at end:
    1     -0.00000000000000    -0.00000000000000    -0.00000000000000
    2     -0.00000000000000    -0.00000000000000    -0.00000000000000
    3     -0.00000000000000    -0.00000000000000    -0.00000000000000
    4     -0.00000000000000    -0.00000000000000    -0.00000000000000
    5     -0.00000000000000    -0.00000000000000    -0.00000000000000
 frms,max,avg= 0.0000000E+00 0.0000000E+00   0.000E+00  0.000E+00  0.000E+00 e/A
 length scales=  7.443423081719  7.443423081719  7.443423081719 bohr
              =  3.938889848739  3.938889848739  3.938889848739 angstroms
 prteigrs : about to open file perovskite-a0_o_EIG
 Fermi (or HOMO) energy (hartree) =   0.26783   Average Vxc (hartree)=  -0.43866
 Eigenvalues (hartree) for nkpt=  20  k points:
 kpt#   1, nband= 21, wtk=  0.01563, kpt=  0.0625  0.0625  0.0625 (reduced coord)
  -1.77871  -0.91844  -0.91844  -0.91844  -0.63539  -0.34183  -0.31543  -0.31543
  -0.09011  -0.09011  -0.08699   0.17939   0.18409   0.18409   0.21755   0.21755
   0.22745   0.25523   0.26231   0.26231   0.34311
 kpt#   2, nband= 21, wtk=  0.04688, kpt=  0.1875  0.0625  0.0625 (reduced coord)
  -1.77869  -0.91915  -0.91840  -0.91840  -0.63391  -0.34332  -0.31491  -0.31378
  -0.08877  -0.08859  -0.08125   0.16185   0.17850   0.17989   0.20298   0.20664
   0.22376   0.23433   0.25457   0.25484   0.34432
 kpt#   3, nband= 21, wtk=  0.04688, kpt=  0.3125  0.0625  0.0625 (reduced coord)
  -1.77867  -0.92015  -0.91836  -0.91835  -0.63175  -0.34811  -0.31416  -0.30806
  -0.08638  -0.08500  -0.07512   0.13688   0.16940   0.17125   0.19111   0.19259
   0.21492   0.21907   0.24499   0.24617   0.34671
 kpt#   4, nband= 21, wtk=  0.04688, kpt=  0.4375  0.0625  0.0625 (reduced coord)
  -1.77865  -0.92087  -0.91833  -0.91832  -0.63020  -0.35240  -0.31363  -0.30258
  -0.08477  -0.08164  -0.07158   0.11946   0.16322   0.16444   0.17829   0.18710
   0.20952   0.21567   0.23785   0.24080   0.34845
 kpt#   5, nband= 21, wtk=  0.04688, kpt=  0.1875  0.1875  0.0625 (reduced coord)
  -1.77867  -0.91913  -0.91910  -0.91837  -0.63257  -0.34229  -0.31465  -0.31329
  -0.09034  -0.08748  -0.07633   0.15097   0.16897   0.17633   0.18751   0.19716
   0.21900   0.23016   0.24575   0.25218   0.36203
 kpt#   6, nband= 21, wtk=  0.09375, kpt=  0.3125  0.1875  0.0625 (reduced coord)
  -1.77865  -0.92012  -0.91906  -0.91833  -0.63064  -0.34390  -0.31350  -0.30977
  -0.08939  -0.08491  -0.07395   0.13241   0.15768   0.16588   0.17395   0.18804
   0.21108   0.22846   0.23558   0.24790   0.36584
 kpt#   7, nband= 21, wtk=  0.09375, kpt=  0.4375  0.1875  0.0625 (reduced coord)
  -1.77863  -0.92082  -0.91903  -0.91830  -0.62924  -0.34659  -0.31257  -0.30539
  -0.08819  -0.08044  -0.07571   0.11729   0.15027   0.15858   0.16467   0.18468
   0.21307   0.22328   0.23097   0.24150   0.36728
 kpt#   8, nband= 21, wtk=  0.04688, kpt=  0.3125  0.3125  0.0625 (reduced coord)
  -1.77862  -0.92008  -0.92004  -0.91829  -0.62903  -0.33923  -0.31344  -0.30965
  -0.09082  -0.08505  -0.07469   0.12438   0.14316   0.14432   0.17133   0.17726
   0.20959   0.22458   0.23479   0.25577   0.38819
 kpt#   9, nband= 21, wtk=  0.09375, kpt=  0.4375  0.3125  0.0625 (reduced coord)
  -1.77861  -0.92075  -0.92001  -0.91827  -0.62787  -0.33766  -0.31197  -0.30895
  -0.09050  -0.08537  -0.07613   0.11419   0.12926   0.13820   0.16495   0.17436
   0.21113   0.22484   0.23340   0.25790   0.39087
 kpt#  10, nband= 21, wtk=  0.04688, kpt=  0.4375  0.4375  0.0625 (reduced coord)
  -1.77859  -0.92071  -0.92070  -0.91824  -0.62689  -0.33055  -0.31251  -0.31110
  -0.09115  -0.08985  -0.07551   0.10870   0.11767   0.12495   0.16511   0.16570
   0.20432   0.23522   0.23914   0.26488   0.40645
 kpt#  11, nband= 21, wtk=  0.01563, kpt=  0.1875  0.1875  0.1875 (reduced coord)
  -1.77866  -0.91911  -0.91906  -0.91906  -0.63135  -0.33985  -0.31366  -0.31366
  -0.09200  -0.09200  -0.07062   0.14065   0.16679   0.16679   0.18685   0.18685
   0.19995   0.23839   0.24573   0.24573   0.37611
 kpt#  12, nband= 21, wtk=  0.04688, kpt=  0.3125  0.1875  0.1875 (reduced coord)
  -1.77863  -0.92008  -0.91905  -0.91901  -0.62959  -0.33926  -0.31223  -0.31091
  -0.09447  -0.09139  -0.07031   0.12788   0.15070   0.16325   0.17298   0.18113
   0.19524   0.23638   0.24017   0.24445   0.37886
 kpt#  13, nband= 21, wtk=  0.04688, kpt=  0.4375  0.1875  0.1875 (reduced coord)
  -1.77861  -0.92077  -0.91901  -0.91898  -0.62832  -0.34070  -0.31119  -0.30678
  -0.09629  -0.08625  -0.07536   0.11595   0.14343   0.15999   0.16139   0.17915
   0.20058   0.23033   0.23768   0.23993   0.38082
 kpt#  14, nband= 21, wtk=  0.04688, kpt=  0.3125  0.3125  0.1875 (reduced coord)
  -1.77861  -0.92003  -0.92000  -0.91898  -0.62808  -0.33381  -0.31179  -0.30977
  -0.09750  -0.09678  -0.07357   0.12280   0.14256   0.14722   0.16991   0.17736
   0.18681   0.23369   0.24315   0.25295   0.39692
 kpt#  15, nband= 21, wtk=  0.09375, kpt=  0.4375  0.3125  0.1875 (reduced coord)
  -1.77859  -0.92071  -0.91998  -0.91895  -0.62700  -0.33162  -0.31010  -0.30842
  -0.10109  -0.09470  -0.08049   0.11417   0.13627   0.14050   0.16413   0.17698
   0.18841   0.23384   0.24121   0.25683   0.39971
 kpt#  16, nband= 21, wtk=  0.04688, kpt=  0.4375  0.4375  0.1875 (reduced coord)
  -1.77857  -0.92067  -0.92066  -0.91892  -0.62605  -0.32431  -0.31039  -0.30923
  -0.10074  -0.10004  -0.08790   0.10907   0.12505   0.13643   0.16847   0.17274
   0.18014   0.24115   0.24459   0.26533   0.41341
 kpt#  17, nband= 21, wtk=  0.01563, kpt=  0.3125  0.3125  0.3125 (reduced coord)
  -1.77858  -0.91999  -0.91995  -0.91995  -0.62672  -0.32652  -0.30935  -0.30935
  -0.10504  -0.10504  -0.08182   0.12240   0.14210   0.14210   0.15693   0.17847
   0.17847   0.24636   0.24636   0.25505   0.41002
 kpt#  18, nband= 21, wtk=  0.04688, kpt=  0.4375  0.3125  0.3125 (reduced coord)
  -1.77857  -0.92065  -0.91993  -0.91992  -0.62574  -0.32240  -0.30783  -0.30755
  -0.11078  -0.10537  -0.09220   0.11353   0.13716   0.14198   0.15254   0.17967
   0.18124   0.24468   0.25305   0.25880   0.41439
 kpt#  19, nband= 21, wtk=  0.04688, kpt=  0.4375  0.4375  0.3125 (reduced coord)
  -1.77855  -0.92062  -0.92062  -0.91989  -0.62484  -0.31496  -0.30722  -0.30653
  -0.11359  -0.11194  -0.10400   0.10830   0.12524   0.14126   0.16066   0.17943
   0.18062   0.25369   0.25565   0.26629   0.42369
 kpt#  20, nband= 21, wtk=  0.01563, kpt=  0.4375  0.4375  0.4375 (reduced coord)
  -1.77853  -0.92059  -0.92059  -0.92058  -0.62398  -0.30767  -0.30483  -0.30483
  -0.12001  -0.12001  -0.11608   0.10355   0.12540   0.12540   0.17620   0.18220
   0.18220   0.26518   0.26518   0.26783   0.43209
 Total charge density [el/Bohr^3]
,     Maximum=    1.3374E+00  at reduced coord.    0.5000    0.5400    0.5800
,Next maximum=    1.3374E+00  at reduced coord.    0.5400    0.5000    0.5800
,     Minimum=    1.7139E-03  at reduced coord.    0.0000    0.0000    0.0000
,Next minimum=    2.1593E-03  at reduced coord.    0.0200    0.0000    0.0000

--------------------------------------------------------------------------------
 Components of total free energy (in Hartree) :

    Kinetic energy  =  6.35599906206898E+01
    Hartree energy  =  2.88503821211344E+01
    XC energy       = -2.13794583057515E+01
    Ewald energy    = -1.05339202559831E+02
    PspCore energy  =  5.06725674584205E+00
    Loc. psp. energy= -1.18702728121812E+02
    NL   psp  energy=  1.61009012946838E+01
    >>>>>>>>> Etotal= -1.31842858205044E+02

 Other information on the energy :
    Total energy(eV)= -3.58762662381701E+03 ; Band energy (Ha)=  -9.3642682187E+00
--------------------------------------------------------------------------------

 Cartesian components of stress tensor (hartree/bohr^3)
  sigma(1 1)=  4.16887325E-09  sigma(3 2)=  0.00000000E+00
  sigma(2 2)=  4.16887327E-09  sigma(3 1)=  0.00000000E+00
  sigma(3 3)=  4.16887325E-09  sigma(2 1)=  0.00000000E+00

-Cartesian components of stress tensor (GPa)         [Pressure= -1.2265E-04 GPa]
- sigma(1 1)=  1.22652465E-04  sigma(3 2)=  0.00000000E+00
- sigma(2 2)=  1.22652466E-04  sigma(3 1)=  0.00000000E+00
- sigma(3 3)=  1.22652465E-04  sigma(2 1)=  0.00000000E+00

== END DATASET(S) ==============================================================
================================================================================
  
 -outvars: echo values of variables after computation  --------
     acell    7.4434230817E+00  7.4434230817E+00  7.4434230817E+00 Bohr
       amu    1.37327000E+02  4.78800000E+01  1.59994000E+01
    diemac    1.20000000E+01
   dilatmx    1.10000000E+00
      ecut    4.30000000E+01 Hartree
    ecutsm    3.00000000E+00 Hartree
    etotal   -1.3184285821E+02
     fcart   -0.0000000000E+00 -0.0000000000E+00 -0.0000000000E+00
             -0.0000000000E+00 -0.0000000000E+00 -0.0000000000E+00
             -0.0000000000E+00 -0.0000000000E+00 -0.0000000000E+00
             -0.0000000000E+00 -0.0000000000E+00 -0.0000000000E+00
             -0.0000000000E+00 -0.0000000000E+00 -0.0000000000E+00
    ionmov         2
       ixc         3
       kpt    6.25000000E-02  6.25000000E-02  6.25000000E-02
              1.87500000E-01  6.25000000E-02  6.25000000E-02
              3.12500000E-01  6.25000000E-02  6.25000000E-02
              4.37500000E-01  6.25000000E-02  6.25000000E-02
              1.87500000E-01  1.87500000E-01  6.25000000E-02
              3.12500000E-01  1.87500000E-01  6.25000000E-02
              4.37500000E-01  1.87500000E-01  6.25000000E-02
              3.12500000E-01  3.12500000E-01  6.25000000E-02
              4.37500000E-01  3.12500000E-01  6.25000000E-02
              4.37500000E-01  4.37500000E-01  6.25000000E-02
              1.87500000E-01  1.87500000E-01  1.87500000E-01
              3.12500000E-01  1.87500000E-01  1.87500000E-01
              4.37500000E-01  1.87500000E-01  1.87500000E-01
              3.12500000E-01  3.12500000E-01  1.87500000E-01
              4.37500000E-01  3.12500000E-01  1.87500000E-01
              4.37500000E-01  4.37500000E-01  1.87500000E-01
              3.12500000E-01  3.12500000E-01  3.12500000E-01
              4.37500000E-01  3.12500000E-01  3.12500000E-01
              4.37500000E-01  4.37500000E-01  3.12500000E-01
              4.37500000E-01  4.37500000E-01  4.37500000E-01
   kptrlen    5.97153458E+01
    kptopt         1
  kptrlatt    8  0  0   0  8  0   0  0  8
P    mkmem         5
     natom         5
     nband        21
     ngfft        50      50      50
      nkpt        20
     nstep        35
      nsym        48
     ntime        30
    ntypat         3
       occ    2.000000  2.000000  2.000000  2.000000  2.000000  2.000000
              2.000000  2.000000  2.000000  2.000000  2.000000  2.000000
              2.000000  2.000000  2.000000  2.000000  2.000000  2.000000
              2.000000  2.000000  0.000000
   optcell         2
    prtden         0
     prtwf         0
    shiftk    5.00000000E-01  5.00000000E-01  5.00000000E-01
   spgroup       221
    strten    4.1688732501E-09  4.1688732744E-09  4.1688732518E-09
              0.0000000000E+00  0.0000000000E+00  0.0000000000E+00
    symrel    1  0  0   0  1  0   0  0  1      -1  0  0   0 -1  0   0  0 -1
             -1  0  0   0  1  0   0  0 -1       1  0  0   0 -1  0   0  0  1
             -1  0  0   0 -1  0   0  0  1       1  0  0   0  1  0   0  0 -1
              1  0  0   0 -1  0   0  0 -1      -1  0  0   0  1  0   0  0  1
              0  1  0   1  0  0   0  0  1       0 -1  0  -1  0  0   0  0 -1
              0 -1  0   1  0  0   0  0 -1       0  1  0  -1  0  0   0  0  1
              0 -1  0  -1  0  0   0  0  1       0  1  0   1  0  0   0  0 -1
              0  1  0  -1  0  0   0  0 -1       0 -1  0   1  0  0   0  0  1
              0  0  1   1  0  0   0  1  0       0  0 -1  -1  0  0   0 -1  0
              0  0 -1   1  0  0   0 -1  0       0  0  1  -1  0  0   0  1  0
              0  0 -1  -1  0  0   0  1  0       0  0  1   1  0  0   0 -1  0
              0  0  1  -1  0  0   0 -1  0       0  0 -1   1  0  0   0  1  0
              1  0  0   0  0  1   0  1  0      -1  0  0   0  0 -1   0 -1  0
             -1  0  0   0  0  1   0 -1  0       1  0  0   0  0 -1   0  1  0
             -1  0  0   0  0 -1   0  1  0       1  0  0   0  0  1   0 -1  0
              1  0  0   0  0 -1   0 -1  0      -1  0  0   0  0  1   0  1  0
              0  1  0   0  0  1   1  0  0       0 -1  0   0  0 -1  -1  0  0
              0 -1  0   0  0  1  -1  0  0       0  1  0   0  0 -1   1  0  0
              0 -1  0   0  0 -1   1  0  0       0  1  0   0  0  1  -1  0  0
              0  1  0   0  0 -1  -1  0  0       0 -1  0   0  0  1   1  0  0
              0  0  1   0  1  0   1  0  0       0  0 -1   0 -1  0  -1  0  0
              0  0 -1   0  1  0  -1  0  0       0  0  1   0 -1  0   1  0  0
              0  0 -1   0 -1  0   1  0  0       0  0  1   0  1  0  -1  0  0
              0  0  1   0 -1  0  -1  0  0       0  0 -1   0  1  0   1  0  0
    toldfe    1.00000000E-10 Hartree
     typat    1  2  3  3  3
       wtk      0.01563    0.04688    0.04688    0.04688    0.04688    0.09375
                0.09375    0.04688    0.09375    0.04688    0.01563    0.04688
                0.04688    0.04688    0.09375    0.04688    0.01563    0.04688
                0.04688    0.01563
    xangst    0.0000000000E+00  0.0000000000E+00  0.0000000000E+00
              1.9694449244E+00  1.9694449244E+00  1.9694449244E+00
              0.0000000000E+00  1.9694449244E+00  1.9694449244E+00
              1.9694449244E+00  0.0000000000E+00  1.9694449244E+00
              1.9694449244E+00  1.9694449244E+00  0.0000000000E+00
     xcart    0.0000000000E+00  0.0000000000E+00  0.0000000000E+00
              3.7217115409E+00  3.7217115409E+00  3.7217115409E+00
              0.0000000000E+00  3.7217115409E+00  3.7217115409E+00
              3.7217115409E+00  0.0000000000E+00  3.7217115409E+00
              3.7217115409E+00  3.7217115409E+00  0.0000000000E+00
      xred    0.0000000000E+00  0.0000000000E+00  0.0000000000E+00
              5.0000000000E-01  5.0000000000E-01  5.0000000000E-01
              0.0000000000E+00  5.0000000000E-01  5.0000000000E-01
              5.0000000000E-01  0.0000000000E+00  5.0000000000E-01
              5.0000000000E-01  5.0000000000E-01  0.0000000000E+00
     znucl     56.00000   22.00000    8.00000

================================================================================


- Timing analysis has been suppressed with timopt=0


-
- Proc.   0 individual time (sec): cpu=       1004.2  wall=       1004.2

================================================================================

 Calculation completed.
.Delivered    0 WARNINGs and   4 COMMENTs to log file.
+Overall time at end (sec) : cpu=       4016.6  wall=       4016.6
