
.Version 5.6.5  of ABINIT 
.(MPI version, prepared for a x86_64_linux_gcc4.3 computer) 

.Copyright (C) 1998-2008 ABINIT group . 
 ABINIT comes with ABSOLUTELY NO WARRANTY.
 It is free software, and you are welcome to redistribute it
 under certain conditions (GNU General Public License,
 see ~abinit/COPYING or http://www.gnu.org/copyleft/gpl.txt).

 ABINIT is a project of the Universite Catholique de Louvain,
 Corning Inc. and other collaborators, see ~abinit/doc/developers/contributors.txt .
 Please read ~abinit/doc/users/acknowledgments.html for suggested
 acknowledgments of the ABINIT effort.
 For more information, see http://www.abinit.org .

.Starting date : Thu 12 Mar 2009.
  
- input  file    -> perovskite-tetragonal.in
- output file    -> perovskite-tetragonal.out
- root for input  files -> perovskite-tetragonal_i
- root for output files -> perovskite-tetragonal_o


 Symmetries : space group P4 m m (# 99); Bravais tP (primitive tetrag.)
================================================================================
 Values of the parameters that define the memory need of the present run
   intxc =         0  ionmov =         2    iscf =         7 xclevel =         1
  lmnmax =         4   lnmax =         4   mband =        21  mffmem =         1
P  mgfft =        60   mkmem =        10 mpssoang=         3     mpw =     13166
  mqgrid =      3001   natom =         5    nfft =    216000    nkpt =        40
  nloalg =         4  nspden =         1 nspinor =         1  nsppol =         1
    nsym =         8  n1xccc =         0  ntypat =         3  occopt =         1
================================================================================
P This job should need less than                     108.890 Mbytes of memory.
  Rough estimation (10% accuracy) of disk space for files :
  WF disk file :    168.756 Mbytes ; DEN or POT disk file :      1.650 Mbytes.
================================================================================

 -outvars: echo values of preprocessed input variables --------
     acell    7.4386120087E+00  7.4386120087E+00  7.4662411534E+00 Bohr
       amu    1.37327000E+02  4.78800000E+01  1.59994000E+01
    diemac    1.20000000E+01
   dilatmx    1.10000000E+00
      ecut    6.30000000E+01 Hartree
    ecutsm    3.00000000E+00 Hartree
    ionmov         2
       ixc         3
       kpt    6.25000000E-02  6.25000000E-02  6.25000000E-02
              1.87500000E-01  6.25000000E-02  6.25000000E-02
              3.12500000E-01  6.25000000E-02  6.25000000E-02
              4.37500000E-01  6.25000000E-02  6.25000000E-02
              1.87500000E-01  1.87500000E-01  6.25000000E-02
              3.12500000E-01  1.87500000E-01  6.25000000E-02
              4.37500000E-01  1.87500000E-01  6.25000000E-02
              3.12500000E-01  3.12500000E-01  6.25000000E-02
              4.37500000E-01  3.12500000E-01  6.25000000E-02
              4.37500000E-01  4.37500000E-01  6.25000000E-02
              6.25000000E-02  6.25000000E-02  1.87500000E-01
              1.87500000E-01  6.25000000E-02  1.87500000E-01
              3.12500000E-01  6.25000000E-02  1.87500000E-01
              4.37500000E-01  6.25000000E-02  1.87500000E-01
              1.87500000E-01  1.87500000E-01  1.87500000E-01
              3.12500000E-01  1.87500000E-01  1.87500000E-01
              4.37500000E-01  1.87500000E-01  1.87500000E-01
              3.12500000E-01  3.12500000E-01  1.87500000E-01
              4.37500000E-01  3.12500000E-01  1.87500000E-01
              4.37500000E-01  4.37500000E-01  1.87500000E-01
              6.25000000E-02  6.25000000E-02  3.12500000E-01
              1.87500000E-01  6.25000000E-02  3.12500000E-01
              3.12500000E-01  6.25000000E-02  3.12500000E-01
              4.37500000E-01  6.25000000E-02  3.12500000E-01
              1.87500000E-01  1.87500000E-01  3.12500000E-01
              3.12500000E-01  1.87500000E-01  3.12500000E-01
              4.37500000E-01  1.87500000E-01  3.12500000E-01
              3.12500000E-01  3.12500000E-01  3.12500000E-01
              4.37500000E-01  3.12500000E-01  3.12500000E-01
              4.37500000E-01  4.37500000E-01  3.12500000E-01
              6.25000000E-02  6.25000000E-02  4.37500000E-01
              1.87500000E-01  6.25000000E-02  4.37500000E-01
              3.12500000E-01  6.25000000E-02  4.37500000E-01
              4.37500000E-01  6.25000000E-02  4.37500000E-01
              1.87500000E-01  1.87500000E-01  4.37500000E-01
              3.12500000E-01  1.87500000E-01  4.37500000E-01
              4.37500000E-01  1.87500000E-01  4.37500000E-01
              3.12500000E-01  3.12500000E-01  4.37500000E-01
              4.37500000E-01  3.12500000E-01  4.37500000E-01
              4.37500000E-01  4.37500000E-01  4.37500000E-01
   kptrlen    5.95088961E+01
    kptopt         1
  kptrlatt    8  0  0   0  8  0   0  0  8
P    mkmem        10
     natom         5
     nband        21
     ngfft        60      60      60
      nkpt        40
     nstep        45
      nsym         8
     ntime        20
    ntypat         3
       occ    2.000000  2.000000  2.000000  2.000000  2.000000  2.000000
              2.000000  2.000000  2.000000  2.000000  2.000000  2.000000
              2.000000  2.000000  2.000000  2.000000  2.000000  2.000000
              2.000000  2.000000  0.000000
   optcell         2
    prtden         0
     prtwf         0
    shiftk    5.00000000E-01  5.00000000E-01  5.00000000E-01
   spgroup        99
    symrel    1  0  0   0  1  0   0  0  1       1  0  0   0 -1  0   0  0  1
             -1  0  0   0 -1  0   0  0  1      -1  0  0   0  1  0   0  0  1
              0  1  0   1  0  0   0  0  1       0  1  0  -1  0  0   0  0  1
              0 -1  0  -1  0  0   0  0  1       0 -1  0   1  0  0   0  0  1
    toldff    5.00000000E-07
     typat    1  2  3  3  3
       wtk      0.01563    0.03125    0.03125    0.03125    0.01563    0.03125
                0.03125    0.01563    0.03125    0.01563    0.01563    0.03125
                0.03125    0.03125    0.01563    0.03125    0.03125    0.01563
                0.03125    0.01563    0.01563    0.03125    0.03125    0.03125
                0.01563    0.03125    0.03125    0.01563    0.03125    0.01563
                0.01563    0.03125    0.03125    0.03125    0.01563    0.03125
                0.03125    0.01563    0.03125    0.01563
    xangst    0.0000000000E+00  0.0000000000E+00  1.5268659347E-02
              1.9681719693E+00  1.9681719693E+00  2.0204053997E+00
              0.0000000000E+00  1.9681719693E+00  1.9594420553E+00
              1.9681719693E+00  0.0000000000E+00  1.9594420553E+00
              1.9681719693E+00  1.9681719693E+00 -2.8111191385E-02
     xcart    0.0000000000E+00  0.0000000000E+00  2.8853584583E-02
              3.7193060043E+00  3.7193060043E+00  3.8180128828E+00
              0.0000000000E+00  3.7193060043E+00  3.7028088578E+00
              3.7193060043E+00  0.0000000000E+00  3.7028088578E+00
              3.7193060043E+00  3.7193060043E+00 -5.3122452986E-02
      xred    0.0000000000E+00  0.0000000000E+00  3.8645395976E-03
              5.0000000000E-01  5.0000000000E-01  5.1137015325E-01
              0.0000000000E+00  5.0000000000E-01  4.9594016343E-01
              5.0000000000E-01  0.0000000000E+00  4.9594016343E-01
              5.0000000000E-01  5.0000000000E-01 -7.1150197127E-03
     znucl     56.00000   22.00000    8.00000

================================================================================

 chkinp: Checking input parameters for consistency.

================================================================================
== DATASET  1 ==================================================================

 Real(R)+Recip(G) space primitive vectors, cartesian coordinates (Bohr,Bohr^-1):
 R(1)=  7.4386120  0.0000000  0.0000000  G(1)=  0.1344337  0.0000000  0.0000000
 R(2)=  0.0000000  7.4386120  0.0000000  G(2)=  0.0000000  0.1344337  0.0000000
 R(3)=  0.0000000  0.0000000  7.4662412  G(3)=  0.0000000  0.0000000  0.1339362
 Unit cell volume ucvol=  4.1312914E+02 bohr^3
 Angles (23,13,12)=  9.00000000E+01  9.00000000E+01  9.00000000E+01 degrees

 getcut: wavevector=  0.0000  0.0000  0.0000  ngfft=  60  60  60
         ecut(hartree)=     76.230   => boxcut(ratio)=   2.04466

--- Pseudopotential description ------------------------------------------------
- pspini: atom type   1  psp file is 56ba.psp.mod
- pspatm: opening atomic psp file    56ba.psp.mod
 Barium.ion 5s2.5p6.6s0.5d0 rcs=rcp=rcd=1.7 ecut=22/28
  56.00000  10.00000    940000                znucl, zion, pspdat
    4    3    2    2      2001   0.00000      pspcod,pspxc,lmax,lloc,mmax,r2well
    0   0.000   0.000    2   1.6965489        l,e99.0,e99.9,nproj,rcpsp
   0.00000000   0.00000000   0.00000000   0.00000000     rms, ekb1, ekb2, epsatm
    1   0.000   0.000    2   1.6965489        l,e99.0,e99.9,nproj,rcpsp
   0.00000000   0.00000000   0.00000000   0.00000000     rms, ekb1, ekb2, epsatm
    2   0.000   0.000    0   1.6965489        l,e99.0,e99.9,nproj,rcpsp
   0.00000000   0.00000000   0.00000000   0.00000000     rms, ekb1, ekb2, epsatm
    0.00000000000000    0.00000000000000    0.00000000000000   rchrg,fchrg,qchrg
 pspatm: epsatm=   43.25917021
         --- l  ekb(1:nproj) -->
             0   -9.646692   27.266828
             1   -6.938476   21.148499
 pspatm: atomic psp has been read  and splines computed

- pspini: atom type   2  psp file is 22ti.psp.mod
- pspatm: opening atomic psp file    22ti.psp.mod
 Titane.ion 3s2.3p6.4s0.3d2 rcd=1.65, rcs=rc0=1.25, ecut 32/54
  22.00000  12.00000    940000                znucl, zion, pspdat
    4    3    2    2      2001   0.00000      pspcod,pspxc,lmax,lloc,mmax,r2well
    0   0.000   0.000    2   1.2533577        l,e99.0,e99.9,nproj,rcpsp
   0.00000000   0.00000000   0.00000000   0.00000000     rms, ekb1, ekb2, epsatm
    1   0.000   0.000    2   1.2533577        l,e99.0,e99.9,nproj,rcpsp
   0.00000000   0.00000000   0.00000000   0.00000000     rms, ekb1, ekb2, epsatm
    2   0.000   0.000    0   1.6491622        l,e99.0,e99.9,nproj,rcpsp
   0.00000000   0.00000000   0.00000000   0.00000000     rms, ekb1, ekb2, epsatm
    0.00000000000000    0.00000000000000    0.00000000000000   rchrg,fchrg,qchrg
 pspatm: epsatm=    4.67708954
         --- l  ekb(1:nproj) -->
             0    9.517316   -2.344682
             1    5.011406   -0.741179
 pspatm: atomic psp has been read  and splines computed

- pspini: atom type   3  psp file is 8o.phoney.mod
- pspatm: opening atomic psp file    8o.phoney.mod
 Compromise psp for oxygen with rc=1.5 ec=25 double reference
   8.00000   6.00000    980710                znucl, zion, pspdat
    5    3    1    1       600   0.00000      pspcod,pspxc,lmax,lloc,mmax,r2well
    1.000000E-06    3.075239E-02              r1 and al (Hamman grid)
    0   0.000   0.000    2   1.4915765        l,e99.0,e99.9,nproj,rcpsp
   0.00000000   0.00000000   0.00000000   0.00000000     rms, ekb1, ekb2, epsatm
    1   0.000   0.000    0   1.4915765        l,e99.0,e99.9,nproj,rcpsp
   0.00000000   0.00000000   0.00000000   0.00000000     rms, ekb1, ekb2, epsatm
    0.00000000000000    0.00000000000000    0.00000000000000   rchrg,fchrg,qchrg
 pspatm: epsatm=    1.43569736
         --- l  ekb(1:nproj) -->
             0    5.763361   -1.798421
 pspatm: atomic psp has been read  and splines computed

   2.08973407E+03                                ecore*ucvol(ha*bohr**3)
--------------------------------------------------------------------------------

P newkpt: treating     21 bands with npw=   13159 for ikpt=   1 by node    0
P newkpt: treating     21 bands with npw=   13155 for ikpt=   2 by node    0
P newkpt: treating     21 bands with npw=   13148 for ikpt=   3 by node    0
P newkpt: treating     21 bands with npw=   13131 for ikpt=   4 by node    0
P newkpt: treating     21 bands with npw=   13143 for ikpt=   5 by node    0
P newkpt: treating     21 bands with npw=   13137 for ikpt=   6 by node    0
P newkpt: treating     21 bands with npw=   13132 for ikpt=   7 by node    0
P newkpt: treating     21 bands with npw=   13121 for ikpt=   8 by node    0
P newkpt: treating     21 bands with npw=   13126 for ikpt=   9 by node    0
P newkpt: treating     21 bands with npw=   13138 for ikpt=  10 by node    0
P newkpt: treating     21 bands with npw=   13166 for ikpt=  11 by node    1
P newkpt: treating     21 bands with npw=   13148 for ikpt=  12 by node    1
P newkpt: treating     21 bands with npw=   13136 for ikpt=  13 by node    1
P newkpt: treating     21 bands with npw=   13119 for ikpt=  14 by node    1
P newkpt: treating     21 bands with npw=   13121 for ikpt=  15 by node    1
P newkpt: treating     21 bands with npw=   13140 for ikpt=  16 by node    1
P newkpt: treating     21 bands with npw=   13129 for ikpt=  17 by node    1
P newkpt: treating     21 bands with npw=   13129 for ikpt=  18 by node    1
P newkpt: treating     21 bands with npw=   13134 for ikpt=  19 by node    1
P newkpt: treating     21 bands with npw=   13126 for ikpt=  20 by node    1
P newkpt: treating     21 bands with npw=   13156 for ikpt=  21 by node    2
P newkpt: treating     21 bands with npw=   13150 for ikpt=  22 by node    2
P newkpt: treating     21 bands with npw=   13124 for ikpt=  23 by node    2
P newkpt: treating     21 bands with npw=   13123 for ikpt=  24 by node    2
P newkpt: treating     21 bands with npw=   13142 for ikpt=  25 by node    2
P newkpt: treating     21 bands with npw=   13127 for ikpt=  26 by node    2
P newkpt: treating     21 bands with npw=   13133 for ikpt=  27 by node    2
P newkpt: treating     21 bands with npw=   13127 for ikpt=  28 by node    2
P newkpt: treating     21 bands with npw=   13125 for ikpt=  29 by node    2
P newkpt: treating     21 bands with npw=   13110 for ikpt=  30 by node    2
P newkpt: treating     21 bands with npw=   13137 for ikpt=  31 by node    3
P newkpt: treating     21 bands with npw=   13123 for ikpt=  32 by node    3
P newkpt: treating     21 bands with npw=   13127 for ikpt=  33 by node    3
P newkpt: treating     21 bands with npw=   13146 for ikpt=  34 by node    3
P newkpt: treating     21 bands with npw=   13145 for ikpt=  35 by node    3
P newkpt: treating     21 bands with npw=   13135 for ikpt=  36 by node    3
P newkpt: treating     21 bands with npw=   13131 for ikpt=  37 by node    3
P newkpt: treating     21 bands with npw=   13136 for ikpt=  38 by node    3
P newkpt: treating     21 bands with npw=   13121 for ikpt=  39 by node    3
P newkpt: treating     21 bands with npw=   13117 for ikpt=  40 by node    3

 setup2: Arith. and geom. avg. npw (full set) are   13133.953   13133.948

================================================================================

 BROYDEN STEP NUMBER   0  ------------------------------------------------------

     iter   Etot(hartree)      deltaE(h)  residm     vres2    diffor    maxfor
 ETOT  1  -130.84120849119    -1.308E+02 6.063E-01 2.909E+03 1.129E-01 1.129E-01
 ETOT  2  -131.80786674575    -9.667E-01 1.749E-01 7.885E+02 1.505E-01 3.768E-02
 ETOT  3  -131.84889745873    -4.103E-02 3.438E-02 2.893E+01 4.179E-02 7.301E-03
 ETOT  4  -131.85236666493    -3.469E-03 4.413E-02 2.557E+01 1.508E-02 7.967E-03
 ETOT  5  -131.85498883266    -2.622E-03 2.713E-02 5.740E+00 1.030E-02 2.331E-03
 ETOT  6  -131.85606216283    -1.073E-03 1.457E-02 5.900E-01 2.752E-03 7.218E-04
 ETOT  7  -131.85632323261    -2.611E-04 2.899E-03 3.810E-01 9.283E-04 1.065E-03
 ETOT  8  -131.85644619715    -1.230E-04 2.944E-03 2.746E-03 8.144E-04 2.509E-04
 ETOT  9  -131.85647663194    -3.043E-05 2.731E-03 3.866E-02 2.430E-04 1.852E-04
 ETOT 10  -131.85649730672    -2.067E-05 2.454E-03 1.007E-03 1.414E-04 2.121E-04
 ETOT 11  -131.85650351021    -6.203E-06 2.345E-03 2.466E-03 6.351E-05 1.556E-04
 ETOT 12  -131.85650670582    -3.196E-06 1.879E-03 1.327E-04 5.479E-05 1.890E-04
 ETOT 13  -131.85650785923    -1.153E-06 1.846E-03 7.975E-04 6.917E-05 1.337E-04
 ETOT 14  -131.85650857779    -7.186E-07 1.339E-03 2.203E-05 5.389E-05 1.685E-04
 ETOT 15  -131.85650884437    -2.666E-07 1.352E-03 1.415E-04 8.867E-06 1.717E-04
 ETOT 16  -131.85650900217    -1.578E-07 1.109E-03 2.386E-05 1.447E-05 1.809E-04
 ETOT 17  -131.85650906589    -6.372E-08 1.218E-03 5.280E-05 8.260E-06 1.753E-04
 ETOT 18  -131.85650910542    -3.953E-08 1.051E-03 1.579E-05 4.034E-06 1.757E-04
 ETOT 19  -131.85650912236    -1.694E-08 1.150E-03 1.732E-05 1.870E-06 1.758E-04
 ETOT 20  -131.85650913298    -1.063E-08 9.532E-04 4.741E-06 3.212E-06 1.770E-04
 ETOT 21  -131.85650913709    -4.105E-09 1.036E-03 8.252E-06 3.499E-06 1.805E-04
 ETOT 22  -131.85650914026    -3.178E-09 8.312E-04 2.469E-06 8.999E-07 1.796E-04
 ETOT 23  -131.85650914165    -1.387E-09 8.928E-04 1.275E-06 6.837E-07 1.802E-04
 ETOT 24  -131.85650914245    -8.034E-10 7.000E-04 2.108E-07 2.332E-06 1.826E-04
 ETOT 25  -131.85650914281    -3.578E-10 7.404E-04 4.131E-08 2.802E-07 1.828E-04
 ETOT 26  -131.85650914301    -2.020E-10 6.061E-04 5.125E-09 4.062E-07 1.830E-04

 At SCF step   26, forces are converged :
  for the second time, max diff in force=  4.062E-07 < toldff=  5.000E-07

 Cartesian components of stress tensor (hartree/bohr^3)
  sigma(1 1)=  3.55041841E-06  sigma(3 2)=  0.00000000E+00
  sigma(2 2)=  3.55041841E-06  sigma(3 1)=  0.00000000E+00
  sigma(3 3)=  2.20829033E-06  sigma(2 1)=  0.00000000E+00

 Unit cell characteristics :
  acell=  7.4386120087E+00  7.4386120087E+00  7.4662411534E+00
  rprim=  1.0000000000E+00  0.0000000000E+00  0.0000000000E+00
          0.0000000000E+00  1.0000000000E+00  0.0000000000E+00
          0.0000000000E+00  0.0000000000E+00  1.0000000000E+00
  ucvol=  4.1312913810E+02 Bohr^3
  lengths=  7.4386120087E+00  7.4386120087E+00  7.4662411534E+00 Bohr
  angles (23,13,12)=  90.00000000  90.00000000  90.00000000 degrees
 Cartesian coordinates (bohr)
  0.00000000000000E+00  0.00000000000000E+00  2.88535845825450E-02
  3.71930600435000E+00  3.71930600435000E+00  3.81801288281562E+00
  0.00000000000000E+00  3.71930600435000E+00  3.70280885782499E+00
  3.71930600435000E+00  0.00000000000000E+00  3.70280885782499E+00
  3.71930600435000E+00  3.71930600435000E+00 -5.31224529862130E-02
 Cartesian forces (hart/bohr); max,rms= 1.83037E-04 6.06555E-05 (free atoms)
 -0.00000000000000E+00 -0.00000000000000E+00 -5.29876130754615E-05
 -0.00000000000000E+00 -0.00000000000000E+00 -1.83037067268073E-04
 -0.00000000000000E+00 -0.00000000000000E+00  7.15228469751040E-05
 -0.00000000000000E+00 -0.00000000000000E+00  7.15228469751040E-05
 -0.00000000000000E+00 -0.00000000000000E+00  9.29789863933260E-05

 At the end of Broyden step  0, total energy= -1.31856509143014E+02 Ha.


 BROYDEN STEP NUMBER   1  ------------------------------------------------------

     iter   Etot(hartree)      deltaE(h)  residm     vres2    diffor    maxfor
 ETOT  1  -131.85650531039    -1.319E+02 2.223E+00 8.840E-02 2.422E-03 2.605E-03
 ETOT  2  -131.85650774698    -2.437E-06 6.465E-03 2.162E-02 3.319E-03 7.142E-04
 ETOT  3  -131.85650855975    -8.128E-07 6.209E-04 7.124E-03 9.035E-04 1.893E-04
 ETOT  4  -131.85650941852    -8.588E-07 9.845E-04 3.594E-04 8.408E-05 2.374E-04
 ETOT  5  -131.85650945858    -4.006E-08 6.909E-04 4.417E-05 8.387E-05 2.580E-04
 ETOT  6  -131.85650945820     3.792E-10 7.232E-04 6.280E-05 7.337E-05 1.846E-04
 ETOT  7  -131.85650946284    -4.642E-09 6.015E-04 1.675E-05 9.646E-06 1.853E-04
 ETOT  8  -131.85650946437    -1.528E-09 5.638E-04 1.000E-06 1.374E-05 1.942E-04
 ETOT  9  -131.85650946448    -1.158E-10 5.627E-04 5.727E-07 4.920E-06 1.897E-04
 ETOT 10  -131.85650946452    -3.686E-11 6.502E-04 6.202E-08 8.884E-07 1.903E-04
 ETOT 11  -131.85650946452     9.095E-13 4.967E-04 2.022E-08 1.031E-06 1.899E-04
 ETOT 12  -131.85650946452     3.439E-12 8.429E-04 5.795E-09 3.836E-07 1.901E-04
 ETOT 13  -131.85650946452    -1.137E-12 3.998E-04 1.188E-09 1.821E-07 1.901E-04

 At SCF step   13, forces are converged :
  for the second time, max diff in force=  1.821E-07 < toldff=  5.000E-07

 Cartesian components of stress tensor (hartree/bohr^3)
  sigma(1 1)=  1.56770558E-06  sigma(3 2)=  0.00000000E+00
  sigma(2 2)=  1.56770558E-06  sigma(3 1)=  0.00000000E+00
  sigma(3 3)=  6.78203066E-07  sigma(2 1)=  0.00000000E+00

 Unit cell characteristics :
  acell=  7.4378197031E+00  7.4378197031E+00  7.4657465246E+00
  rprim=  1.0000000000E+00  0.0000000000E+00  0.0000000000E+00
          0.0000000000E+00  1.0000000000E+00  0.0000000000E+00
          0.0000000000E+00  0.0000000000E+00  1.0000000000E+00
  ucvol=  4.1301377246E+02 Bohr^3
  lengths=  7.4378197031E+00  7.4378197031E+00  7.4657465246E+00 Bohr
  angles (23,13,12)=  90.00000000  90.00000000  90.00000000 degrees
 Cartesian coordinates (bohr)
  0.00000000000000E+00  0.00000000000000E+00  2.87986889670790E-02
  3.71890985157417E+00  3.71890985157417E+00  3.81757691944685E+00
  0.00000000000000E+00  3.71890985157417E+00  3.70263506962422E+00
  3.71890985157417E+00  0.00000000000000E+00  3.70263506962422E+00
  3.71890985157417E+00  3.71890985157417E+00 -5.30259608655861E-02
 Cartesian forces (hart/bohr); max,rms= 1.90116E-04 6.36020E-05 (free atoms)
 -0.00000000000000E+00 -0.00000000000000E+00 -5.58278074527029E-05
 -0.00000000000000E+00 -0.00000000000000E+00 -1.90115977315384E-04
 -0.00000000000000E+00 -0.00000000000000E+00  6.75212471231419E-05
 -0.00000000000000E+00 -0.00000000000000E+00  6.75212471231419E-05
 -0.00000000000000E+00 -0.00000000000000E+00  1.10901290521803E-04

 At the end of Broyden step  1, total energy= -1.31856509464518E+02 Ha.


 BROYDEN STEP NUMBER   2  ------------------------------------------------------

     iter   Etot(hartree)      deltaE(h)  residm     vres2    diffor    maxfor
 ETOT  1  -131.85650376553    -1.319E+02 7.005E-01 1.109E-01 6.735E-03 6.925E-03
 ETOT  2  -131.85650780860    -4.043E-06 1.280E-02 2.305E-02 9.231E-03 2.306E-03
 ETOT  3  -131.85650885000    -1.041E-06 4.180E-04 6.665E-03 2.688E-03 3.825E-04
 ETOT  4  -131.85650960511    -7.551E-07 2.814E-04 2.827E-04 1.084E-04 2.741E-04
 ETOT  5  -131.85650964321    -3.811E-08 1.787E-04 4.148E-05 1.773E-04 3.000E-04
 ETOT  6  -131.85650964382    -6.043E-10 2.046E-04 5.374E-05 1.325E-04 1.675E-04
 ETOT  7  -131.85650964753    -3.707E-09 1.045E-04 1.801E-05 2.070E-05 1.799E-04
 ETOT  8  -131.85650964909    -1.561E-09 1.340E-04 6.589E-07 2.418E-05 1.899E-04
 ETOT  9  -131.85650964915    -5.952E-11 8.128E-05 9.045E-07 4.873E-06 1.861E-04
 ETOT 10  -131.85650964920    -5.059E-11 1.010E-04 1.886E-07 6.187E-07 1.863E-04
 ETOT 11  -131.85650964921    -9.521E-12 5.456E-05 1.030E-07 1.784E-06 1.855E-04
 ETOT 12  -131.85650964921    -6.565E-12 1.004E-04 1.504E-08 4.506E-07 1.857E-04
 ETOT 13  -131.85650964922    -5.684E-12 4.695E-05 2.828E-10 1.315E-07 1.858E-04

 At SCF step   13, forces are converged :
  for the second time, max diff in force=  1.315E-07 < toldff=  5.000E-07

 Cartesian components of stress tensor (hartree/bohr^3)
  sigma(1 1)= -4.77212222E-07  sigma(3 2)=  0.00000000E+00
  sigma(2 2)= -4.77212222E-07  sigma(3 1)=  0.00000000E+00
  sigma(3 3)= -5.71270585E-07  sigma(2 1)=  0.00000000E+00

 Unit cell characteristics :
  acell=  7.4369708747E+00  7.4369708747E+00  7.4653496695E+00
  rprim=  1.0000000000E+00  0.0000000000E+00  0.0000000000E+00
          0.0000000000E+00  1.0000000000E+00  0.0000000000E+00
          0.0000000000E+00  0.0000000000E+00  1.0000000000E+00
  ucvol=  4.1289755939E+02 Bohr^3
  lengths=  7.4369708747E+00  7.4369708747E+00  7.4653496695E+00 Bohr
  angles (23,13,12)=  90.00000000  90.00000000  90.00000000 degrees
 Cartesian coordinates (bohr)
  0.00000000000000E+00  0.00000000000000E+00  2.86754870794508E-02
  3.71848543735706E+00  3.71848543735706E+00  3.81695916395432E+00
  0.00000000000000E+00  3.71848543735706E+00  3.70258680152032E+00
  3.71848543735706E+00  0.00000000000000E+00  3.70258680152032E+00
  3.71848543735706E+00  3.71848543735706E+00 -5.27837498973696E-02
 Cartesian forces (hart/bohr); max,rms= 1.85824E-04 6.33401E-05 (free atoms)
 -0.00000000000000E+00 -0.00000000000000E+00 -5.91302316633008E-05
 -0.00000000000000E+00 -0.00000000000000E+00 -1.85824031680966E-04
 -0.00000000000000E+00 -0.00000000000000E+00  6.27141699314558E-05
 -0.00000000000000E+00 -0.00000000000000E+00  6.27141699314558E-05
 -0.00000000000000E+00 -0.00000000000000E+00  1.19525923481356E-04

 At the end of Broyden step  2, total energy= -1.31856509649218E+02 Ha.


 BROYDEN STEP NUMBER   3  ------------------------------------------------------

     iter   Etot(hartree)      deltaE(h)  residm     vres2    diffor    maxfor
 ETOT  1  -131.85650744110    -1.319E+02 3.908E-02 3.273E-02 7.445E-03 7.630E-03
 ETOT  2  -131.85650932813    -1.887E-06 4.753E-02 4.214E-03 1.023E-02 2.599E-03
 ETOT  3  -131.85650972607    -3.979E-07 2.623E-02 2.008E-04 3.228E-03 6.290E-04
 ETOT  4  -131.85650974598    -1.990E-08 4.071E-05 3.482E-05 4.936E-04 1.865E-04
 ETOT  5  -131.85650974922    -3.241E-09 8.884E-05 4.744E-06 1.764E-05 1.907E-04
 ETOT  6  -131.85650974967    -4.497E-10 2.812E-05 7.333E-08 2.480E-05 1.814E-04
 ETOT  7  -131.85650974970    -3.240E-11 8.527E-05 1.186E-07 1.148E-05 1.708E-04
 ETOT  8  -131.85650974972    -2.282E-11 2.686E-05 1.142E-08 4.712E-06 1.727E-04
 ETOT  9  -131.85650974972    -2.785E-12 8.184E-05 1.754E-09 9.539E-07 1.729E-04
 ETOT 10  -131.85650974973    -2.615E-12 2.571E-05 5.804E-10 2.008E-07 1.728E-04
 ETOT 11  -131.85650974973     1.705E-12 7.854E-05 7.838E-11 1.426E-07 1.728E-04

 At SCF step   11, forces are converged :
  for the second time, max diff in force=  1.426E-07 < toldff=  5.000E-07

 Cartesian components of stress tensor (hartree/bohr^3)
  sigma(1 1)= -1.15499041E-06  sigma(3 2)=  0.00000000E+00
  sigma(2 2)= -1.15499041E-06  sigma(3 1)=  0.00000000E+00
  sigma(3 3)= -6.83857875E-07  sigma(2 1)=  0.00000000E+00

 Unit cell characteristics :
  acell=  7.4366676471E+00  7.4366676471E+00  7.4652833566E+00
  rprim=  1.0000000000E+00  0.0000000000E+00  0.0000000000E+00
          0.0000000000E+00  1.0000000000E+00  0.0000000000E+00
          0.0000000000E+00  0.0000000000E+00  1.0000000000E+00
  ucvol=  4.1286022257E+02 Bohr^3
  lengths=  7.4366676471E+00  7.4366676471E+00  7.4652833566E+00 Bohr
  angles (23,13,12)=  90.00000000  90.00000000  90.00000000 degrees
 Cartesian coordinates (bohr)
  0.00000000000000E+00  0.00000000000000E+00  2.85465484234780E-02
  3.71833382356789E+00  3.71833382356789E+00  3.81650702560342E+00
  0.00000000000000E+00  3.71833382356789E+00  3.70269995939157E+00
  3.71833382356789E+00  0.00000000000000E+00  3.70269995939157E+00
  3.71833382356789E+00  3.71833382356789E+00 -5.25284579314017E-02
 Cartesian forces (hart/bohr); max,rms= 1.72816E-04 5.97398E-05 (free atoms)
 -0.00000000000000E+00 -0.00000000000000E+00 -6.05969730038913E-05
 -0.00000000000000E+00 -0.00000000000000E+00 -1.72815597075261E-04
 -0.00000000000000E+00 -0.00000000000000E+00  6.03159362331390E-05
 -0.00000000000000E+00 -0.00000000000000E+00  6.03159362331390E-05
 -0.00000000000000E+00 -0.00000000000000E+00  1.12780697612874E-04

 At the end of Broyden step  3, total energy= -1.31856509749726E+02 Ha.


 BROYDEN STEP NUMBER   4  ------------------------------------------------------

     iter   Etot(hartree)      deltaE(h)  residm     vres2    diffor    maxfor
 ETOT  1  -131.85647006975    -1.319E+02 2.444E+02 5.172E-01 3.377E-02 3.395E-02
 ETOT  2  -131.85650330839    -3.324E-05 2.206E-02 5.949E-02 4.674E-02 1.279E-02
 ETOT  3  -131.85650959480    -6.286E-06 2.531E-05 3.723E-03 1.515E-02 2.354E-03
 ETOT  4  -131.85650996858    -3.738E-07 9.461E-05 9.768E-04 2.158E-03 3.024E-04
 ETOT  5  -131.85651008986    -1.213E-07 1.253E-04 3.936E-05 2.839E-04 2.080E-04
 ETOT  6  -131.85651009486    -4.999E-09 8.681E-05 5.579E-06 1.340E-04 1.255E-04
 ETOT  7  -131.85651009561    -7.435E-10 1.934E-05 4.476E-06 2.217E-05 1.033E-04
 ETOT  8  -131.85651009632    -7.096E-10 7.983E-05 9.769E-07 1.018E-05 1.082E-04
 ETOT  9  -131.85651009645    -1.294E-10 1.761E-05 2.661E-07 8.298E-06 1.116E-04
 ETOT 10  -131.85651009650    -5.031E-11 7.379E-05 7.131E-08 2.806E-06 1.106E-04
 ETOT 11  -131.85651009651    -1.211E-11 1.617E-05 3.175E-08 1.209E-06 1.104E-04
 ETOT 12  -131.85651009651    -5.627E-12 6.843E-05 9.670E-09 7.323E-07 1.106E-04
 ETOT 13  -131.85651009651     2.160E-12 1.494E-05 4.907E-09 4.146E-07 1.108E-04
 ETOT 14  -131.85651009651    -1.052E-12 6.361E-05 8.661E-10 2.519E-07 1.109E-04

 At SCF step   14, forces are converged :
  for the second time, max diff in force=  2.519E-07 < toldff=  5.000E-07

 Cartesian components of stress tensor (hartree/bohr^3)
  sigma(1 1)= -2.57807124E-06  sigma(3 2)=  0.00000000E+00
  sigma(2 2)= -2.57807124E-06  sigma(3 1)=  0.00000000E+00
  sigma(3 3)= -1.39886836E-07  sigma(2 1)=  0.00000000E+00

 Unit cell characteristics :
  acell=  7.4360067114E+00  7.4360067114E+00  7.4651737142E+00
  rprim=  1.0000000000E+00  0.0000000000E+00  0.0000000000E+00
          0.0000000000E+00  1.0000000000E+00  0.0000000000E+00
          0.0000000000E+00  0.0000000000E+00  1.0000000000E+00
  ucvol=  4.1278077713E+02 Bohr^3
  lengths=  7.4360067114E+00  7.4360067114E+00  7.4651737142E+00 Bohr
  angles (23,13,12)=  90.00000000  90.00000000  90.00000000 degrees
 Cartesian coordinates (bohr)
  0.00000000000000E+00  0.00000000000000E+00  2.79435138770559E-02
  3.71800335571323E+00  3.71800335571323E+00  3.81456576886034E+00
  0.00000000000000E+00  3.71800335571323E+00  3.70331088857211E+00
  3.71800335571323E+00  0.00000000000000E+00  3.70331088857211E+00
  3.71800335571323E+00  3.71800335571323E+00 -5.13704885477542E-02
 Cartesian forces (hart/bohr); max,rms= 1.10861E-04 4.24758E-05 (free atoms)
 -0.00000000000000E+00 -0.00000000000000E+00 -6.46199981348276E-05
 -0.00000000000000E+00 -0.00000000000000E+00 -1.10860756750352E-04
 -0.00000000000000E+00 -0.00000000000000E+00  5.10484402765378E-05
 -0.00000000000000E+00 -0.00000000000000E+00  5.10484402765378E-05
 -0.00000000000000E+00 -0.00000000000000E+00  7.33838743321037E-05

 At the end of Broyden step  4, total energy= -1.31856510096513E+02 Ha.


 BROYDEN STEP NUMBER   5  ------------------------------------------------------

     iter   Etot(hartree)      deltaE(h)  residm     vres2    diffor    maxfor
 ETOT  1  -131.85645940958    -1.319E+02 1.663E-04 6.351E-01 3.894E-02 3.905E-02
 ETOT  2  -131.85650177216    -4.236E-05 8.044E-05 7.418E-02 5.398E-02 1.493E-02
 ETOT  3  -131.85650944018    -7.668E-06 1.251E-05 7.514E-03 1.772E-02 2.789E-03
 ETOT  4  -131.85651030288    -8.627E-07 7.047E-05 8.487E-04 2.252E-03 5.415E-04
 ETOT  5  -131.85651042429    -1.214E-07 1.136E-05 2.453E-05 6.381E-04 2.662E-04
 ETOT  6  -131.85651042930    -5.018E-09 6.146E-05 2.380E-06 1.759E-04 9.032E-05
 ETOT  7  -131.85651043013    -8.273E-10 9.935E-06 1.740E-06 1.110E-05 7.928E-05
 ETOT  8  -131.85651043063    -4.956E-10 5.488E-05 3.014E-07 1.411E-05 6.517E-05
 ETOT  9  -131.85651043074    -1.138E-10 9.310E-06 4.345E-08 8.305E-07 6.479E-05
 ETOT 10  -131.85651043076    -2.052E-11 4.941E-05 3.650E-08 1.919E-06 6.522E-05
 ETOT 11  -131.85651043079    -2.851E-11 9.378E-06 3.125E-09 6.963E-07 6.543E-05
 ETOT 12  -131.85651043079    -3.098E-12 4.474E-05 3.410E-09 5.381E-07 6.533E-05
 ETOT 13  -131.85651043080    -9.379E-12 9.434E-06 1.290E-09 3.720E-07 6.545E-05
 ETOT 14  -131.85651043080     3.354E-12 4.059E-05 4.870E-10 1.992E-07 6.555E-05

 At SCF step   14, forces are converged :
  for the second time, max diff in force=  1.992E-07 < toldff=  5.000E-07

 Cartesian components of stress tensor (hartree/bohr^3)
  sigma(1 1)= -2.85386244E-06  sigma(3 2)=  0.00000000E+00
  sigma(2 2)= -2.85386244E-06  sigma(3 1)=  0.00000000E+00
  sigma(3 3)=  1.00088663E-06  sigma(2 1)=  0.00000000E+00

 Unit cell characteristics :
  acell=  7.4358966188E+00  7.4358966188E+00  7.4649468100E+00
  rprim=  1.0000000000E+00  0.0000000000E+00  0.0000000000E+00
          0.0000000000E+00  1.0000000000E+00  0.0000000000E+00
          0.0000000000E+00  0.0000000000E+00  1.0000000000E+00
  ucvol=  4.1275600838E+02 Bohr^3
  lengths=  7.4358966188E+00  7.4358966188E+00  7.4649468100E+00 Bohr
  angles (23,13,12)=  90.00000000  90.00000000  90.00000000 degrees
 Cartesian coordinates (bohr)
  0.00000000000000E+00  0.00000000000000E+00  2.72022373430314E-02
  3.71794830941834E+00  3.71794830941834E+00  3.81226187340413E+00
  0.00000000000000E+00  3.71794830941834E+00  3.70398982239936E+00
  3.71794830941834E+00  0.00000000000000E+00  3.70398982239936E+00
  3.71794830941834E+00  3.71794830941834E+00 -5.00235406573304E-02
 Cartesian forces (hart/bohr); max,rms= 6.55530E-05 2.67193E-05 (free atoms)
 -0.00000000000000E+00 -0.00000000000000E+00 -6.55529509732358E-05
 -0.00000000000000E+00 -0.00000000000000E+00 -4.64083700523180E-05
 -0.00000000000000E+00 -0.00000000000000E+00  4.09593518786878E-05
 -0.00000000000000E+00 -0.00000000000000E+00  4.09593518786878E-05
 -0.00000000000000E+00 -0.00000000000000E+00  3.00426172681782E-05

 At the end of Broyden step  5, total energy= -1.31856510430798E+02 Ha.


 BROYDEN STEP NUMBER   6  ------------------------------------------------------

     iter   Etot(hartree)      deltaE(h)  residm     vres2    diffor    maxfor
 ETOT  1  -131.85641395187    -1.319E+02 1.782E-04 1.193E+00 5.332E-02 5.337E-02
 ETOT  2  -131.85649445375    -8.050E-05 3.111E-05 1.417E-01 7.370E-02 2.033E-02
 ETOT  3  -131.85650834398    -1.389E-05 9.867E-06 1.908E-02 2.421E-02 3.878E-03
 ETOT  4  -131.85651059827    -2.254E-06 2.612E-05 1.583E-03 3.103E-03 7.758E-04
 ETOT  5  -131.85651083062    -2.324E-07 9.777E-06 4.109E-05 1.048E-03 3.395E-04
 ETOT  6  -131.85651083892    -8.301E-09 2.325E-05 8.223E-06 2.422E-04 9.733E-05
 ETOT  7  -131.85651084115    -2.221E-09 9.665E-06 2.849E-06 2.529E-05 7.204E-05
 ETOT  8  -131.85651084205    -9.004E-10 2.173E-05 1.890E-07 1.079E-05 6.126E-05
 ETOT  9  -131.85651084221    -1.643E-10 9.656E-06 7.638E-08 2.999E-06 5.913E-05
 ETOT 10  -131.85651084229    -7.560E-11 2.169E-05 1.907E-08 2.845E-06 6.172E-05
 ETOT 11  -131.85651084231    -2.441E-11 9.655E-06 6.630E-09 1.163E-06 6.056E-05
 ETOT 12  -131.85651084232    -6.395E-12 2.163E-05 2.006E-09 6.835E-07 6.072E-05
 ETOT 13  -131.85651084232    -5.656E-12 9.645E-06 1.026E-09 4.457E-07 6.073E-05
 ETOT 14  -131.85651084233    -1.015E-11 2.155E-05 1.248E-10 1.757E-07 6.070E-05

 At SCF step   14, forces are converged :
  for the second time, max diff in force=  1.757E-07 < toldff=  5.000E-07

 Cartesian components of stress tensor (hartree/bohr^3)
  sigma(1 1)= -2.04637778E-06  sigma(3 2)=  0.00000000E+00
  sigma(2 2)= -2.04637778E-06  sigma(3 1)=  0.00000000E+00
  sigma(3 3)=  2.45485628E-06  sigma(2 1)=  0.00000000E+00

 Unit cell characteristics :
  acell=  7.4364093074E+00  7.4364093074E+00  7.4641521268E+00
  rprim=  1.0000000000E+00  0.0000000000E+00  0.0000000000E+00
          0.0000000000E+00  1.0000000000E+00  0.0000000000E+00
          0.0000000000E+00  0.0000000000E+00  1.0000000000E+00
  ucvol=  4.1276898144E+02 Bohr^3
  lengths=  7.4364093074E+00  7.4364093074E+00  7.4641521268E+00 Bohr
  angles (23,13,12)=  90.00000000  90.00000000  90.00000000 degrees
 Cartesian coordinates (bohr)
  0.00000000000000E+00  0.00000000000000E+00  2.60992455568885E-02
  3.71820465371828E+00  3.71820465371828E+00  3.80881625761294E+00
  0.00000000000000E+00  3.71820465371828E+00  3.70473157257921E+00
  3.71820465371828E+00  0.00000000000000E+00  3.70473157257921E+00
  3.71820465371828E+00  3.71820465371828E+00 -4.81504581968802E-02
 Cartesian forces (hart/bohr); max,rms= 6.06972E-05 1.95485E-05 (free atoms)
 -0.00000000000000E+00 -0.00000000000000E+00 -6.06972443903341E-05
 -0.00000000000000E+00 -0.00000000000000E+00  2.20649452895053E-05
 -0.00000000000000E+00 -0.00000000000000E+00  2.61918249624063E-05
 -0.00000000000000E+00 -0.00000000000000E+00  2.61918249624063E-05
 -0.00000000000000E+00 -0.00000000000000E+00 -1.37513508239839E-05

 At the end of Broyden step  6, total energy= -1.31856510842333E+02 Ha.


 BROYDEN STEP NUMBER   7  ------------------------------------------------------

     iter   Etot(hartree)      deltaE(h)  residm     vres2    diffor    maxfor
 ETOT  1  -131.85643576966    -1.319E+02 4.072E+00 9.186E-01 4.624E-02 4.622E-02
 ETOT  2  -131.85649885127    -6.308E-05 2.395E-03 1.064E-01 6.365E-02 1.744E-02
 ETOT  3  -131.85650902376    -1.017E-05 9.031E-06 1.649E-02 2.083E-02 3.393E-03
 ETOT  4  -131.85651097523    -1.951E-06 1.952E-05 1.228E-03 2.725E-03 6.683E-04
 ETOT  5  -131.85651115362    -1.784E-07 1.053E-05 3.356E-05 9.563E-04 3.131E-04
 ETOT  6  -131.85651115972    -6.093E-09 1.882E-05 1.145E-05 2.285E-04 8.464E-05
 ETOT  7  -131.85651116205    -2.331E-09 8.740E-06 3.137E-06 2.103E-05 7.031E-05
 ETOT  8  -131.85651116272    -6.734E-10 1.865E-05 3.820E-07 1.822E-05 6.088E-05
 ETOT  9  -131.85651116283    -1.110E-10 8.675E-06 2.844E-07 5.328E-06 5.555E-05
 ETOT 10  -131.85651116291    -8.163E-11 1.849E-05 1.049E-07 3.417E-06 5.897E-05
 ETOT 11  -131.85651116295    -3.396E-11 8.613E-06 7.274E-09 2.103E-06 5.686E-05
 ETOT 12  -131.85651116296    -1.700E-11 1.831E-05 2.023E-09 3.448E-07 5.659E-05
 ETOT 13  -131.85651116297    -2.387E-12 8.544E-06 3.838E-09 2.405E-07 5.644E-05

 At SCF step   13, forces are converged :
  for the second time, max diff in force=  2.405E-07 < toldff=  5.000E-07

 Cartesian components of stress tensor (hartree/bohr^3)
  sigma(1 1)= -7.15371175E-07  sigma(3 2)=  0.00000000E+00
  sigma(2 2)= -7.15371175E-07  sigma(3 1)=  0.00000000E+00
  sigma(3 3)=  2.92158684E-06  sigma(2 1)=  0.00000000E+00

 Unit cell characteristics :
  acell=  7.4373429133E+00  7.4373429133E+00  7.4626664939E+00
  rprim=  1.0000000000E+00  0.0000000000E+00  0.0000000000E+00
          0.0000000000E+00  1.0000000000E+00  0.0000000000E+00
          0.0000000000E+00  0.0000000000E+00  1.0000000000E+00
  ucvol=  4.1279045391E+02 Bohr^3
  lengths=  7.4373429133E+00  7.4373429133E+00  7.4626664939E+00 Bohr
  angles (23,13,12)=  90.00000000  90.00000000  90.00000000 degrees
 Cartesian coordinates (bohr)
  0.00000000000000E+00  0.00000000000000E+00  2.50287121680255E-02
  3.71867145663329E+00  3.71867145663329E+00  3.80536179802492E+00
  0.00000000000000E+00  3.71867145663329E+00  3.70504594619361E+00
  3.71867145663329E+00  0.00000000000000E+00  3.70504594619361E+00
  3.71867145663329E+00  3.71867145663329E+00 -4.64826618045850E-02
 Cartesian forces (hart/bohr); max,rms= 5.64352E-05 2.11548E-05 (free atoms)
 -0.00000000000000E+00 -0.00000000000000E+00 -4.97533842865142E-05
 -0.00000000000000E+00 -0.00000000000000E+00  5.64351832749684E-05
 -0.00000000000000E+00 -0.00000000000000E+00  1.09236822258185E-05
 -0.00000000000000E+00 -0.00000000000000E+00  1.09236822258185E-05
 -0.00000000000000E+00 -0.00000000000000E+00 -2.85291634400912E-05

 At the end of Broyden step  7, total energy= -1.31856511162967E+02 Ha.


 BROYDEN STEP NUMBER   8  ------------------------------------------------------

     iter   Etot(hartree)      deltaE(h)  residm     vres2    diffor    maxfor
 ETOT  1  -131.85647880524    -1.319E+02 6.645E-03 3.912E-01 2.933E-02 2.927E-02
 ETOT  2  -131.85650646554    -2.766E-05 2.695E-05 4.150E-02 4.013E-02 1.086E-02
 ETOT  3  -131.85651047879    -4.013E-06 7.218E-06 6.985E-03 1.298E-02 2.114E-03
 ETOT  4  -131.85651128499    -8.062E-07 2.662E-05 4.975E-04 1.694E-03 4.197E-04
 ETOT  5  -131.85651135352    -6.853E-08 7.251E-06 1.687E-05 6.103E-04 2.455E-04
 ETOT  6  -131.85651135633    -2.809E-09 2.625E-05 3.750E-06 1.890E-04 6.486E-05
 ETOT  7  -131.85651135716    -8.375E-10 7.161E-06 1.267E-06 1.032E-05 5.454E-05
 ETOT  8  -131.85651135743    -2.713E-10 2.592E-05 1.409E-07 1.697E-05 5.788E-05
 ETOT  9  -131.85651135749    -5.301E-11 7.082E-06 7.727E-08 4.054E-06 5.383E-05
 ETOT 10  -131.85651135752    -3.087E-11 2.559E-05 3.793E-08 2.564E-06 5.639E-05
 ETOT 11  -131.85651135753    -1.125E-11 7.000E-06 5.086E-09 1.890E-06 5.450E-05
 ETOT 12  -131.85651135753     2.984E-12 2.526E-05 7.057E-10 4.065E-07 5.473E-05
 ETOT 13  -131.85651135753    -3.126E-13 6.915E-06 1.228E-09 3.452E-07 5.438E-05

 At SCF step   13, forces are converged :
  for the second time, max diff in force=  3.452E-07 < toldff=  5.000E-07

 Cartesian components of stress tensor (hartree/bohr^3)
  sigma(1 1)=  2.68375148E-07  sigma(3 2)=  0.00000000E+00
  sigma(2 2)=  2.68375148E-07  sigma(3 1)=  0.00000000E+00
  sigma(3 3)=  2.09921410E-06  sigma(2 1)=  0.00000000E+00

 Unit cell characteristics :
  acell=  7.4382189091E+00  7.4382189091E+00  7.4608358246E+00
  rprim=  1.0000000000E+00  0.0000000000E+00  0.0000000000E+00
          0.0000000000E+00  1.0000000000E+00  0.0000000000E+00
          0.0000000000E+00  0.0000000000E+00  1.0000000000E+00
  ucvol=  4.1278641378E+02 Bohr^3
  lengths=  7.4382189091E+00  7.4382189091E+00  7.4608358246E+00 Bohr
  angles (23,13,12)=  90.00000000  90.00000000  90.00000000 degrees
 Cartesian coordinates (bohr)
  0.00000000000000E+00  0.00000000000000E+00  2.42255889175662E-02
  3.71910945455080E+00  3.71910945455080E+00  3.80265395349481E+00
  0.00000000000000E+00  3.71910945455080E+00  3.70487033934917E+00
  3.71910945455080E+00  0.00000000000000E+00  3.70487033934917E+00
  3.71910945455080E+00  3.71910945455080E+00 -4.53664843124438E-02
 Cartesian forces (hart/bohr); max,rms= 5.43815E-05 1.73433E-05 (free atoms)
 -0.00000000000000E+00 -0.00000000000000E+00 -3.58913162371480E-05
 -0.00000000000000E+00 -0.00000000000000E+00  5.43814584241127E-05
 -0.00000000000000E+00 -0.00000000000000E+00 -1.12462197422569E-06
 -0.00000000000000E+00 -0.00000000000000E+00 -1.12462197422569E-06
 -0.00000000000000E+00 -0.00000000000000E+00 -1.62408982385133E-05

 At the end of Broyden step  8, total energy= -1.31856511357527E+02 Ha.


 BROYDEN STEP NUMBER   9  ------------------------------------------------------

     iter   Etot(hartree)      deltaE(h)  residm     vres2    diffor    maxfor
 ETOT  1  -131.85650895994    -1.319E+02 4.048E+02 3.208E-02 6.088E-03 6.034E-03
 ETOT  2  -131.85651109252    -2.133E-06 1.492E-01 3.226E-03 7.990E-03 1.956E-03
 ETOT  3  -131.85651133141    -2.389E-07 3.842E-04 9.444E-04 2.242E-03 2.858E-04
 ETOT  4  -131.85651142307    -9.165E-08 3.649E-04 5.099E-05 2.116E-04 7.532E-05
 ETOT  5  -131.85651142827    -5.199E-09 5.905E-04 2.269E-06 1.259E-04 8.116E-05
 ETOT  6  -131.85651142846    -1.976E-10 1.987E-05 1.039E-06 5.179E-05 2.955E-05
 ETOT  7  -131.85651142860    -1.416E-10 1.898E-05 6.958E-08 8.350E-06 2.806E-05
 ETOT  8  -131.85651142864    -3.647E-11 6.201E-06 9.419E-09 7.232E-06 3.529E-05
 ETOT  9  -131.85651142864    -9.379E-13 1.752E-05 8.188E-09 1.577E-06 3.372E-05
 ETOT 10  -131.85651142864    -2.018E-12 5.791E-06 4.731E-10 5.670E-07 3.395E-05
 ETOT 11  -131.85651142866    -1.225E-11 1.666E-05 4.081E-10 2.761E-07 3.384E-05
 ETOT 12  -131.85651142865     6.622E-12 5.513E-06 3.234E-11 1.322E-07 3.382E-05

 At SCF step   12, forces are converged :
  for the second time, max diff in force=  1.322E-07 < toldff=  5.000E-07

 Cartesian components of stress tensor (hartree/bohr^3)
  sigma(1 1)=  4.09688322E-07  sigma(3 2)=  0.00000000E+00
  sigma(2 2)=  4.09688322E-07  sigma(3 1)=  0.00000000E+00
  sigma(3 3)=  8.18113616E-07  sigma(2 1)=  0.00000000E+00

 Unit cell characteristics :
  acell=  7.4385762520E+00  7.4385762520E+00  7.4596216499E+00
  rprim=  1.0000000000E+00  0.0000000000E+00  0.0000000000E+00
          0.0000000000E+00  1.0000000000E+00  0.0000000000E+00
          0.0000000000E+00  0.0000000000E+00  1.0000000000E+00
  ucvol=  4.1275889323E+02 Bohr^3
  lengths=  7.4385762520E+00  7.4385762520E+00  7.4596216499E+00 Bohr
  angles (23,13,12)=  90.00000000  90.00000000  90.00000000 degrees
 Cartesian coordinates (bohr)
  0.00000000000000E+00  0.00000000000000E+00  2.39284611935906E-02
  3.71928812598368E+00  3.71928812598368E+00  3.80160239483586E+00
  0.00000000000000E+00  3.71928812598368E+00  3.70448151281923E+00
  3.71928812598368E+00  0.00000000000000E+00  3.70448151281923E+00
  3.71928812598368E+00  3.71928812598368E+00 -4.50614067821056E-02
 Cartesian forces (hart/bohr); max,rms= 3.38234E-05 1.11653E-05 (free atoms)
 -0.00000000000000E+00 -0.00000000000000E+00 -2.53504818906036E-05
 -0.00000000000000E+00 -0.00000000000000E+00  3.38233862701008E-05
 -0.00000000000000E+00 -0.00000000000000E+00 -5.96989840612669E-06
 -0.00000000000000E+00 -0.00000000000000E+00 -5.96989840612669E-06
 -0.00000000000000E+00 -0.00000000000000E+00  3.46689243275618E-06

 At the end of Broyden step  9, total energy= -1.31856511428649E+02 Ha.


 BROYDEN STEP NUMBER  10  ------------------------------------------------------

     iter   Etot(hartree)      deltaE(h)  residm     vres2    diffor    maxfor
 ETOT  1  -131.85651018882    -1.319E+02 9.496E-05 1.803E-02 5.880E-03 5.914E-03
 ETOT  2  -131.85651112630    -9.375E-07 6.367E-06 3.377E-03 8.253E-03 2.339E-03
 ETOT  3  -131.85651138221    -2.559E-07 1.140E-05 5.173E-04 2.689E-03 3.683E-04
 ETOT  4  -131.85651143974    -5.753E-08 6.428E-06 2.817E-05 2.509E-04 1.384E-04
 ETOT  5  -131.85651144372    -3.981E-09 1.139E-05 2.286E-06 1.197E-04 4.192E-05
 ETOT  6  -131.85651144390    -1.817E-10 6.326E-06 1.869E-06 3.169E-05 1.305E-05
 ETOT  7  -131.85651144408    -1.752E-10 1.127E-05 3.699E-07 6.161E-06 1.319E-05
 ETOT  8  -131.85651144412    -3.712E-11 6.225E-06 8.583E-08 7.487E-06 2.029E-05
 ETOT  9  -131.85651144412    -4.803E-12 1.113E-05 6.472E-09 7.120E-07 2.029E-05
 ETOT 10  -131.85651144412    -3.126E-13 6.115E-06 5.655E-10 6.350E-07 2.092E-05
 ETOT 11  -131.85651144413    -8.782E-12 1.097E-05 5.114E-10 4.992E-07 2.042E-05
 ETOT 12  -131.85651144413     2.416E-12 6.003E-06 2.391E-11 1.500E-07 2.046E-05

 At SCF step   12, forces are converged :
  for the second time, max diff in force=  1.500E-07 < toldff=  5.000E-07

 Cartesian components of stress tensor (hartree/bohr^3)
  sigma(1 1)=  1.59469363E-07  sigma(3 2)=  0.00000000E+00
  sigma(2 2)=  1.59469363E-07  sigma(3 1)=  0.00000000E+00
  sigma(3 3)=  8.22176388E-08  sigma(2 1)=  0.00000000E+00

 Unit cell characteristics :
  acell=  7.4385447088E+00  7.4385447088E+00  7.4593022496E+00
  rprim=  1.0000000000E+00  0.0000000000E+00  0.0000000000E+00
          0.0000000000E+00  1.0000000000E+00  0.0000000000E+00
          0.0000000000E+00  0.0000000000E+00  1.0000000000E+00
  ucvol=  4.1273771960E+02 Bohr^3
  lengths=  7.4385447088E+00  7.4385447088E+00  7.4593022496E+00 Bohr
  angles (23,13,12)=  90.00000000  90.00000000  90.00000000 degrees
 Cartesian coordinates (bohr)
  0.00000000000000E+00  0.00000000000000E+00  2.39630118799854E-02
  3.71927235440453E+00  3.71927235440453E+00  3.80174113016338E+00
  0.00000000000000E+00  3.71927235440453E+00  3.70422802473117E+00
  3.71927235440453E+00  0.00000000000000E+00  3.70422802473117E+00
  3.71927235440453E+00  3.71927235440453E+00 -4.52068171782056E-02
 Cartesian forces (hart/bohr); max,rms= 2.04597E-05 7.82494E-06 (free atoms)
 -0.00000000000000E+00 -0.00000000000000E+00 -2.04596781604956E-05
 -0.00000000000000E+00 -0.00000000000000E+00  1.65612371417769E-05
 -0.00000000000000E+00 -0.00000000000000E+00 -4.76278908042142E-06
 -0.00000000000000E+00 -0.00000000000000E+00 -4.76278908042142E-06
 -0.00000000000000E+00 -0.00000000000000E+00  1.34240191795615E-05

 At the end of Broyden step 10, total energy= -1.31856511444127E+02 Ha.


 At Broyd/MD step  10, gradients are converged :
  max grad (force/stress) = 2.0460E-05 < tolmxf= 5.0000E-05 ha/bohr (free atoms)

================================================================================

 ----iterations are completed or convergence reached----

 Mean square residual over all n,k,spin=   1.5350E-08; max=  6.0031E-06
   0.0625  0.0625  0.0625    1  1.53955E-07 kpt; spin; max resid(k); each band:
 4.38E-18 8.35E-18 7.21E-18 6.98E-18 1.69E-17 2.72E-16 2.67E-16 9.32E-18
 2.86E-17 4.59E-17 3.80E-17 8.08E-14 6.00E-14 4.85E-15 5.40E-14 5.79E-15
 2.21E-14 3.88E-13 1.61E-12 4.84E-13 1.54E-07
   0.1875  0.0625  0.0625    1  3.26356E-11 kpt; spin; max resid(k); each band:
 4.48E-18 6.32E-18 8.53E-18 6.36E-18 1.40E-17 3.09E-16 3.00E-16 5.86E-17
 3.38E-17 3.35E-17 4.73E-17 3.58E-15 1.32E-14 1.11E-14 2.33E-15 4.95E-15
 4.31E-15 8.65E-15 2.22E-14 1.33E-14 3.26E-11
   0.3125  0.0625  0.0625    1  1.49560E-12 kpt; spin; max resid(k); each band:
 4.45E-18 6.03E-18 8.59E-18 5.76E-18 9.46E-18 3.26E-16 3.03E-16 3.11E-17
 1.63E-17 2.85E-17 6.69E-17 1.29E-16 7.49E-15 9.23E-15 3.49E-15 2.59E-15
 1.54E-15 7.10E-15 1.62E-14 1.15E-14 1.50E-12
   0.4375  0.0625  0.0625    1  6.76687E-14 kpt; spin; max resid(k); each band:
 4.50E-18 6.05E-18 8.51E-18 5.85E-18 5.91E-18 3.30E-16 3.08E-16 1.58E-17
 8.52E-18 9.67E-18 8.49E-17 1.04E-16 3.08E-15 2.43E-15 2.08E-15 1.91E-15
 5.57E-15 5.13E-16 6.42E-15 1.34E-14 6.77E-14
   0.1875  0.1875  0.0625    1  2.93264E-09 kpt; spin; max resid(k); each band:
 4.48E-18 6.22E-18 6.05E-18 8.51E-18 1.15E-17 3.26E-16 1.35E-17 3.04E-16
 5.21E-17 2.16E-17 4.17E-17 1.87E-15 6.24E-16 1.08E-14 5.61E-15 6.21E-15
 7.18E-15 1.16E-14 5.91E-15 7.52E-15 2.93E-09
   0.3125  0.1875  0.0625    1  9.10064E-13 kpt; spin; max resid(k); each band:
 4.47E-18 5.96E-18 6.47E-18 8.39E-18 7.55E-18 3.30E-16 2.56E-16 1.54E-16
 4.45E-17 3.02E-17 4.68E-17 3.65E-16 3.46E-16 7.67E-16 5.58E-15 3.09E-15
 5.96E-15 1.76E-14 1.25E-14 1.40E-15 9.10E-13
   0.4375  0.1875  0.0625    1  4.87458E-13 kpt; spin; max resid(k); each band:
 4.45E-18 5.92E-18 5.76E-18 7.90E-18 4.68E-18 3.31E-16 2.97E-16 2.57E-17
 2.54E-17 4.20E-17 5.62E-17 4.18E-17 8.78E-16 2.51E-16 2.71E-15 2.49E-15
 5.75E-15 5.44E-15 6.22E-15 2.12E-15 4.87E-13
   0.3125  0.3125  0.0625    1  1.88159E-08 kpt; spin; max resid(k); each band:
 4.47E-18 5.83E-18 5.76E-18 8.27E-18 4.82E-18 3.02E-16 1.77E-17 2.63E-16
 6.00E-17 3.64E-17 3.55E-17 1.47E-16 1.74E-16 7.56E-16 4.47E-15 1.63E-15
 1.14E-15 4.84E-15 2.12E-14 1.01E-14 1.88E-08
   0.4375  0.3125  0.0625    1  6.07894E-12 kpt; spin; max resid(k); each band:
 4.45E-18 5.78E-18 5.74E-18 7.60E-18 2.74E-18 2.90E-16 2.09E-16 1.09E-16
 5.16E-17 6.67E-17 1.51E-17 5.02E-17 5.68E-16 6.33E-17 2.06E-15 1.81E-15
 3.86E-15 1.06E-14 5.89E-15 5.18E-15 6.08E-12
   0.4375  0.4375  0.0625    1  1.07380E-06 kpt; spin; max resid(k); each band:
 4.46E-18 7.21E-18 6.84E-18 8.13E-18 1.24E-18 1.45E-16 1.64E-17 1.26E-16
 6.56E-17 6.67E-17 5.23E-18 6.81E-17 5.46E-16 1.47E-16 2.51E-16 2.32E-16
 2.63E-15 7.43E-15 1.11E-14 2.51E-16 1.07E-06
   0.0625  0.0625  0.1875    1  2.76272E-12 kpt; spin; max resid(k); each band:
 4.52E-18 1.04E-17 6.79E-18 4.79E-18 1.60E-17 1.60E-16 8.73E-18 1.81E-16
 3.89E-17 4.64E-17 2.87E-17 5.44E-15 1.16E-14 7.69E-16 5.52E-16 1.86E-15
 9.43E-15 4.13E-14 9.65E-14 2.22E-13 2.76E-12
   0.1875  0.0625  0.1875    1  1.58258E-07 kpt; spin; max resid(k); each band:
 4.53E-18 1.03E-17 6.33E-18 7.84E-18 1.32E-17 2.27E-16 3.10E-16 1.75E-16
 4.54E-17 3.72E-17 3.84E-17 6.11E-15 3.66E-15 4.51E-15 4.25E-15 1.83E-15
 1.57E-14 1.11E-14 4.48E-14 6.49E-15 1.58E-07
   0.3125  0.0625  0.1875    1  7.78662E-12 kpt; spin; max resid(k); each band:
 4.55E-18 6.09E-18 1.03E-17 6.44E-18 8.86E-18 2.94E-16 3.04E-16 2.77E-17
 3.56E-17 3.82E-17 5.05E-17 3.32E-16 7.78E-16 1.65E-15 5.54E-15 3.89E-15
 2.44E-15 3.68E-15 1.45E-15 1.08E-14 7.79E-12
   0.4375  0.0625  0.1875    1  5.31233E-13 kpt; spin; max resid(k); each band:
 4.58E-18 6.09E-18 1.03E-17 5.91E-18 5.56E-18 3.16E-16 3.11E-16 1.52E-17
 1.39E-17 4.53E-17 6.32E-17 4.17E-17 6.47E-16 8.14E-16 1.88E-15 3.92E-15
 3.24E-15 4.85E-15 2.18E-15 6.85E-15 5.31E-13
   0.1875  0.1875  0.1875    1  6.00311E-06 kpt; spin; max resid(k); each band:
 4.53E-18 1.02E-17 7.43E-18 6.21E-18 1.06E-17 2.78E-16 2.89E-16 1.32E-17
 5.31E-17 3.41E-17 3.76E-17 4.29E-15 2.92E-15 4.83E-17 1.05E-14 1.63E-15
 5.73E-15 1.48E-14 1.57E-15 3.74E-15 6.00E-06
   0.3125  0.1875  0.1875    1  6.77975E-11 kpt; spin; max resid(k); each band:
 4.54E-18 5.93E-18 1.01E-17 6.05E-18 7.07E-18 3.20E-16 3.09E-16 4.68E-17
 3.04E-17 6.27E-17 3.98E-17 6.04E-16 3.84E-16 6.38E-16 6.04E-16 2.59E-15
 2.55E-15 2.59E-15 1.31E-15 2.71E-15 6.78E-11
   0.4375  0.1875  0.1875    1  3.53259E-13 kpt; spin; max resid(k); each band:
 4.56E-18 5.91E-18 1.01E-17 5.59E-18 4.38E-18 3.28E-16 3.11E-16 1.94E-17
 2.24E-17 8.11E-17 3.11E-17 3.87E-17 1.26E-15 7.38E-16 3.76E-16 1.95E-15
 1.10E-15 8.19E-16 1.27E-15 5.89E-15 3.53E-13
   0.3125  0.3125  0.1875    1  6.30987E-07 kpt; spin; max resid(k); each band:
 4.56E-18 5.98E-18 5.99E-18 1.00E-17 4.50E-18 3.25E-16 1.73E-17 2.99E-16
 3.90E-17 6.13E-17 4.23E-17 4.48E-16 1.51E-16 2.21E-16 1.49E-15 8.56E-16
 4.55E-15 1.46E-15 7.76E-15 2.24E-15 6.31E-07
   0.4375  0.3125  0.1875    1  1.27200E-10 kpt; spin; max resid(k); each band:
 4.58E-18 5.70E-18 5.50E-18 9.83E-18 2.55E-18 3.11E-16 2.29E-16 1.33E-16
 4.08E-17 7.44E-17 3.19E-17 4.19E-17 2.49E-16 1.76E-16 1.03E-15 1.68E-15
 1.40E-15 3.20E-15 1.42E-14 4.01E-15 1.27E-10
   0.4375  0.4375  0.1875    1  8.72612E-07 kpt; spin; max resid(k); each band:
 4.60E-18 6.89E-18 7.00E-18 9.70E-18 1.15E-18 1.72E-16 1.50E-17 1.51E-16
 5.82E-17 6.77E-17 2.10E-17 5.48E-17 5.61E-18 6.63E-16 1.18E-15 2.74E-16
 1.35E-15 9.14E-15 5.08E-15 1.38E-15 8.73E-07
   0.0625  0.0625  0.3125    1  1.65114E-13 kpt; spin; max resid(k); each band:
 4.40E-18 1.27E-17 6.68E-18 4.91E-18 1.45E-17 5.07E-17 8.21E-18 9.68E-17
 4.74E-17 4.50E-17 2.35E-17 3.45E-16 6.94E-16 3.56E-16 1.08E-15 4.59E-16
 2.01E-15 1.71E-14 1.57E-14 1.73E-14 1.65E-13
   0.1875  0.0625  0.3125    1  7.62953E-12 kpt; spin; max resid(k); each band:
 4.30E-18 1.24E-17 6.20E-18 6.61E-18 1.19E-17 7.92E-17 1.47E-16 2.35E-16
 5.89E-17 3.30E-17 3.49E-17 8.05E-16 9.73E-16 9.16E-16 2.12E-15 4.91E-16
 7.45E-15 9.60E-15 2.39E-14 5.07E-15 7.63E-12
   0.3125  0.0625  0.3125    1  5.27719E-07 kpt; spin; max resid(k); each band:
 4.54E-18 1.17E-17 6.08E-18 7.30E-18 7.96E-18 1.66E-16 3.32E-16 2.53E-16
 6.52E-17 3.66E-17 3.85E-17 6.77E-16 3.94E-16 4.61E-16 4.56E-15 6.27E-16
 8.88E-15 5.95E-15 4.96E-15 6.13E-15 5.28E-07
   0.4375  0.0625  0.3125    1  4.80876E-11 kpt; spin; max resid(k); each band:
 4.57E-18 6.05E-18 1.25E-17 6.09E-18 4.99E-18 2.52E-16 3.12E-16 7.62E-17
 2.72E-17 1.00E-16 1.38E-17 1.12E-16 4.29E-16 3.10E-16 9.27E-16 3.05E-15
 1.55E-15 2.59E-15 2.91E-15 7.19E-15 4.81E-11
   0.1875  0.1875  0.3125    1  4.63830E-11 kpt; spin; max resid(k); each band:
 4.49E-18 1.20E-17 6.22E-18 6.01E-18 9.61E-18 1.14E-16 1.24E-17 1.72E-16
 5.51E-17 3.78E-17 4.19E-17 1.14E-15 8.41E-16 3.90E-16 1.64E-15 1.35E-15
 5.18E-15 1.34E-15 6.34E-15 5.56E-15 4.64E-11
   0.3125  0.1875  0.3125    1  5.90962E-07 kpt; spin; max resid(k); each band:
 4.55E-18 1.23E-17 5.91E-18 7.60E-18 6.32E-18 2.07E-16 3.23E-16 2.03E-16
 5.10E-17 5.10E-17 4.62E-17 9.21E-16 3.05E-16 5.27E-16 1.08E-15 7.54E-16
 1.24E-15 2.80E-15 4.73E-15 1.12E-14 5.91E-07
   0.4375  0.1875  0.3125    1  2.01087E-11 kpt; spin; max resid(k); each band:
 4.58E-18 5.85E-18 1.22E-17 5.54E-18 3.91E-18 2.84E-16 3.15E-16 7.27E-17
 2.21E-17 9.75E-17 3.34E-17 9.20E-17 4.02E-16 4.36E-16 2.03E-16 1.38E-15
 1.01E-15 1.75E-15 3.90E-15 6.06E-15 2.01E-11
   0.3125  0.3125  0.3125    1  3.95923E-07 kpt; spin; max resid(k); each band:
 4.57E-18 1.20E-17 6.23E-18 7.49E-18 3.97E-18 2.87E-16 2.98E-16 1.33E-17
 6.48E-17 3.91E-17 5.15E-17 9.99E-16 3.83E-16 1.37E-16 4.29E-16 1.61E-15
 2.71E-16 7.30E-15 6.69E-16 5.71E-15 3.96E-07
   0.4375  0.3125  0.3125    1  1.13246E-09 kpt; spin; max resid(k); each band:
 4.61E-18 5.64E-18 1.20E-17 5.32E-18 2.23E-18 3.24E-16 3.03E-16 1.14E-16
 3.76E-17 8.12E-17 4.22E-17 8.16E-17 2.10E-16 3.96E-16 1.00E-15 1.85E-15
 4.50E-16 1.30E-15 3.12E-15 1.13E-14 1.13E-09
   0.4375  0.4375  0.3125    1  2.77996E-08 kpt; spin; max resid(k); each band:
 4.64E-18 7.01E-18 6.98E-18 1.17E-17 1.00E-18 2.38E-16 1.38E-17 2.21E-16
 5.04E-17 6.98E-17 3.68E-17 5.72E-17 5.58E-17 1.14E-16 1.19E-15 3.52E-16
 6.05E-16 6.71E-15 5.39E-15 3.73E-16 2.78E-08
   0.0625  0.0625  0.4375    1  1.94336E-14 kpt; spin; max resid(k); each band:
 4.35E-18 1.43E-17 6.62E-18 4.97E-18 1.34E-17 1.90E-17 7.89E-18 7.65E-17
 4.88E-17 4.93E-17 1.91E-17 1.42E-16 3.10E-16 2.69E-16 5.72E-16 4.23E-16
 4.42E-16 1.87E-15 8.78E-15 4.00E-15 1.94E-14
   0.1875  0.0625  0.4375    1  3.61093E-13 kpt; spin; max resid(k); each band:
 4.36E-18 1.41E-17 6.16E-18 6.46E-18 1.10E-17 2.09E-17 1.90E-17 1.07E-16
 6.42E-17 3.67E-17 2.95E-17 2.17E-16 5.15E-16 3.95E-16 3.67E-16 8.00E-16
 6.22E-15 7.13E-15 3.05E-15 6.18E-15 3.61E-13
   0.3125  0.0625  0.4375    1  5.07631E-11 kpt; spin; max resid(k); each band:
 4.50E-18 1.35E-17 5.79E-18 6.54E-18 7.31E-18 3.06E-17 2.31E-16 2.88E-16
 9.51E-17 1.78E-17 3.08E-17 2.76E-16 4.12E-16 2.35E-16 2.59E-16 5.42E-16
 2.88E-15 4.78E-15 1.91E-15 9.22E-16 5.08E-11
   0.4375  0.0625  0.4375    1  5.21053E-07 kpt; spin; max resid(k); each band:
 4.53E-18 1.32E-17 5.79E-18 8.01E-18 4.55E-18 7.08E-17 3.19E-16 2.26E-16
 9.52E-17 5.98E-17 1.09E-17 2.17E-16 4.04E-16 2.79E-16 3.57E-15 1.41E-15
 7.62E-16 1.76E-15 2.37E-15 3.46E-15 5.21E-07
   0.1875  0.1875  0.4375    1  9.71558E-13 kpt; spin; max resid(k); each band:
 4.31E-18 1.40E-17 6.20E-18 4.60E-18 8.85E-18 2.38E-17 1.20E-17 1.05E-16
 5.68E-17 2.68E-17 5.79E-17 2.18E-16 5.43E-16 7.61E-16 6.04E-16 1.20E-15
 1.44E-15 8.44E-16 4.31E-15 1.86E-15 9.72E-13
   0.3125  0.1875  0.4375    1  1.24835E-10 kpt; spin; max resid(k); each band:
 4.50E-18 1.32E-17 5.74E-18 6.16E-18 5.80E-18 3.80E-17 3.06E-16 3.22E-16
 7.08E-17 2.09E-17 6.31E-17 2.03E-16 4.34E-16 4.19E-16 5.26E-16 6.58E-16
 9.07E-16 2.15E-15 3.63E-15 1.19E-15 1.25E-10
   0.4375  0.1875  0.4375    1  7.81908E-07 kpt; spin; max resid(k); each band:
 4.56E-18 1.32E-17 5.68E-18 7.30E-18 3.52E-18 9.19E-17 3.00E-16 1.99E-16
 7.79E-17 5.19E-17 4.40E-17 2.07E-16 3.51E-16 4.31E-16 5.58E-16 1.51E-15
 7.01E-16 4.74E-15 4.34E-15 2.94E-15 7.82E-07
   0.3125  0.3125  0.4375    1  1.39437E-08 kpt; spin; max resid(k); each band:
 4.56E-18 1.27E-17 5.56E-18 5.51E-18 3.59E-18 6.46E-17 1.27E-16 1.62E-17
 6.46E-17 2.32E-17 7.19E-17 2.86E-16 1.96E-16 2.33E-16 3.89E-16 1.68E-15
 2.76E-16 5.23E-16 2.45E-15 5.39E-15 1.39E-08
   0.4375  0.3125  0.4375    1  7.03710E-07 kpt; spin; max resid(k); each band:
 4.61E-18 1.27E-17 5.64E-18 6.02E-18 1.98E-18 1.63E-16 2.70E-16 1.25E-16
 5.93E-17 5.10E-17 5.93E-17 2.37E-16 2.61E-16 1.07E-16 4.95E-16 2.69E-16
 4.96E-16 3.13E-15 3.33E-15 2.08E-15 7.04E-07
   0.4375  0.4375  0.4375    1  4.14587E-07 kpt; spin; max resid(k); each band:
 4.63E-18 1.29E-17 6.37E-18 6.16E-18 8.38E-19 3.11E-16 3.09E-16 1.43E-17
 7.06E-17 3.87E-17 5.22E-17 1.98E-16 1.93E-16 3.08E-16 3.56E-16 1.21E-15
 7.14E-16 3.72E-15 1.70E-15 2.47E-15 4.15E-07
 reduced coordinates (array xred) for    5 atoms
       0.000000000000      0.000000000000      0.003212500456
       0.500000000000      0.500000000000      0.509664443531
       0.000000000000      0.500000000000      0.496591758960
       0.500000000000      0.000000000000      0.496591758960
       0.500000000000      0.500000000000     -0.006060461913
 rms dE/dt=  5.8441E-05; max dE/dt=  1.4757E-04; dE/dt below (all hartree)
    1       0.000000000000      0.000000000000      0.000147572589
    2       0.000000000000      0.000000000000     -0.000128577608
    3       0.000000000000      0.000000000000      0.000030484749
    4       0.000000000000      0.000000000000      0.000030484749
    5       0.000000000000      0.000000000000     -0.000105176151

 cartesian coordinates (angstrom) at end:
    1      0.00000000000000     0.00000000000000     0.01269247574783
    2      1.96817196927396     1.96817196927396     2.01366620088398
    3      0.00000000000000     1.96817196927396     1.96201648623242
    4      1.96817196927396     0.00000000000000     1.96201648623242
    5      1.96817196927396     1.96817196927396    -0.02394467079282

 cartesian forces (hartree/bohr) at end:
    1     -0.00000000000000    -0.00000000000000    -0.00002044066354
    2     -0.00000000000000    -0.00000000000000     0.00001654584562
    3     -0.00000000000000    -0.00000000000000    -0.00000475836269
    4     -0.00000000000000    -0.00000000000000    -0.00000475836269
    5     -0.00000000000000    -0.00000000000000     0.00001341154329
 frms,max,avg= 7.8176691E-06 2.0440664E-05   0.000E+00  0.000E+00  6.754E-07 h/b

 cartesian forces (eV/Angstrom) at end:
    1     -0.00000000000000    -0.00000000000000    -0.00105110109227
    2     -0.00000000000000    -0.00000000000000     0.00085082151891
    3     -0.00000000000000    -0.00000000000000    -0.00024468482668
    4     -0.00000000000000    -0.00000000000000    -0.00024468482668
    5     -0.00000000000000    -0.00000000000000     0.00068964922672
 frms,max,avg= 4.0200068E-04 1.0511011E-03   0.000E+00  0.000E+00  3.473E-05 e/A
 length scales=  7.438544708809  7.438544708809  7.459302249577 bohr
              =  3.936308324979  3.936308324979  3.947292742460 angstroms
 prteigrs : about to open file perovskite-tetragonal_o_EIG
 Fermi (or HOMO) energy (hartree) =   0.26725   Average Vxc (hartree)=  -0.43844
 Eigenvalues (hartree) for nkpt=  40  k points:
 kpt#   1, nband= 21, wtk=  0.01563, kpt=  0.0625  0.0625  0.0625 (reduced coord)
  -1.77822  -0.91920  -0.91887  -0.91887  -0.63608  -0.34199  -0.31575  -0.31538
  -0.09072  -0.09060  -0.08754   0.17892   0.18351   0.18365   0.21636   0.21654
   0.22656   0.25294   0.26094   0.26143   0.34279
 kpt#   2, nband= 21, wtk=  0.03125, kpt=  0.1875  0.0625  0.0625 (reduced coord)
  -1.77821  -0.91959  -0.91917  -0.91884  -0.63460  -0.34347  -0.31515  -0.31382
  -0.08937  -0.08912  -0.08180   0.16143   0.17793   0.17945   0.20203   0.20574
   0.22298   0.23289   0.25261   0.25456   0.34627
 kpt#   3, nband= 21, wtk=  0.03125, kpt=  0.3125  0.0625  0.0625 (reduced coord)
  -1.77818  -0.92060  -0.91913  -0.91880  -0.63244  -0.34825  -0.31438  -0.30812
  -0.08695  -0.08556  -0.07575   0.13656   0.16888   0.17084   0.19031   0.19184
   0.21435   0.21829   0.24221   0.24606   0.34863
 kpt#   4, nband= 21, wtk=  0.03125, kpt=  0.4375  0.0625  0.0625 (reduced coord)
  -1.77816  -0.92130  -0.91910  -0.91877  -0.63088  -0.35254  -0.31384  -0.30266
  -0.08533  -0.08219  -0.07227   0.11925   0.16276   0.16405   0.17758   0.18630
   0.20912   0.21533   0.23465   0.24052   0.35035
 kpt#   5, nband= 21, wtk=  0.01563, kpt=  0.1875  0.1875  0.0625 (reduced coord)
  -1.77819  -0.91958  -0.91953  -0.91914  -0.63326  -0.34247  -0.31461  -0.31357
  -0.09095  -0.08811  -0.07688   0.15059   0.16847   0.17583   0.18696   0.19650
   0.21653   0.22933   0.24571   0.25173   0.36235
 kpt#   6, nband= 21, wtk=  0.03125, kpt=  0.3125  0.1875  0.0625 (reduced coord)
  -1.77816  -0.92055  -0.91950  -0.91910  -0.63133  -0.34408  -0.31360  -0.30989
  -0.09004  -0.08556  -0.07457   0.13208   0.15724   0.16554   0.17348   0.18735
   0.20893   0.22732   0.23573   0.24760   0.36648
 kpt#   7, nband= 21, wtk=  0.03125, kpt=  0.4375  0.1875  0.0625 (reduced coord)
  -1.77814  -0.92125  -0.91947  -0.91907  -0.62993  -0.34676  -0.31274  -0.30545
  -0.08880  -0.08113  -0.07641   0.11707   0.14989   0.15833   0.16418   0.18386
   0.21181   0.22079   0.23162   0.24135   0.36797
 kpt#   8, nband= 21, wtk=  0.01563, kpt=  0.3125  0.3125  0.0625 (reduced coord)
  -1.77814  -0.92051  -0.92047  -0.91906  -0.62972  -0.33945  -0.31341  -0.30982
  -0.09159  -0.08570  -0.07539   0.12405   0.14289   0.14398   0.17075   0.17677
   0.20742   0.22486   0.23392   0.25563   0.38822
 kpt#   9, nband= 21, wtk=  0.03125, kpt=  0.4375  0.3125  0.0625 (reduced coord)
  -1.77812  -0.92118  -0.92045  -0.91904  -0.62856  -0.33788  -0.31203  -0.30900
  -0.09128  -0.08617  -0.07683   0.11394   0.12891   0.13801   0.16439   0.17375
   0.20986   0.22431   0.23260   0.25787   0.39124
 kpt#  10, nband= 21, wtk=  0.01563, kpt=  0.4375  0.4375  0.0625 (reduced coord)
  -1.77810  -0.92114  -0.92113  -0.91901  -0.62757  -0.33084  -0.31249  -0.31113
  -0.09204  -0.09072  -0.07620   0.10841   0.11732   0.12492   0.16452   0.16513
   0.20365   0.23433   0.23822   0.26494   0.40723
 kpt#  11, nband= 21, wtk=  0.01563, kpt=  0.0625  0.0625  0.1875 (reduced coord)
  -1.77821  -0.91990  -0.91884  -0.91884  -0.63462  -0.34345  -0.31486  -0.31422
  -0.08928  -0.08912  -0.08185   0.16133   0.17795   0.17939   0.20232   0.20564
   0.22296   0.23356   0.25358   0.25405   0.34467
 kpt#  12, nband= 21, wtk=  0.03125, kpt=  0.1875  0.0625  0.1875 (reduced coord)
  -1.77819  -0.91987  -0.91955  -0.91881  -0.63328  -0.34243  -0.31497  -0.31337
  -0.09087  -0.08801  -0.07694   0.15062   0.16807   0.17591   0.18705   0.19639
   0.21846   0.22940   0.24479   0.25135   0.36262
 kpt#  13, nband= 21, wtk=  0.03125, kpt=  0.3125  0.0625  0.1875 (reduced coord)
  -1.77816  -0.92055  -0.91981  -0.91877  -0.63135  -0.34406  -0.31387  -0.30979
  -0.08991  -0.08545  -0.07456   0.13213   0.15674   0.16569   0.17354   0.18752
   0.21051   0.22757   0.23450   0.24709   0.36705
 kpt#  14, nband= 21, wtk=  0.03125, kpt=  0.4375  0.0625  0.1875 (reduced coord)
  -1.77815  -0.92126  -0.91978  -0.91874  -0.62995  -0.34677  -0.31289  -0.30546
  -0.08869  -0.08100  -0.07632   0.11710   0.14964   0.15824   0.16416   0.18430
   0.21261   0.22190   0.23011   0.24067   0.36850
 kpt#  15, nband= 21, wtk=  0.01563, kpt=  0.1875  0.1875  0.1875 (reduced coord)
  -1.77817  -0.91983  -0.91953  -0.91950  -0.63206  -0.34002  -0.31405  -0.31363
  -0.09262  -0.09248  -0.07123   0.14031   0.16604   0.16620   0.18607   0.18656
   0.19939   0.23740   0.24493   0.24548   0.37543
 kpt#  16, nband= 21, wtk=  0.03125, kpt=  0.3125  0.1875  0.1875 (reduced coord)
  -1.77815  -0.92051  -0.91978  -0.91947  -0.63030  -0.33947  -0.31252  -0.31095
  -0.09497  -0.09202  -0.07095   0.12757   0.15018   0.16276   0.17277   0.18047
   0.19439   0.23543   0.23954   0.24414   0.37937
 kpt#  17, nband= 21, wtk=  0.03125, kpt=  0.4375  0.1875  0.1875 (reduced coord)
  -1.77813  -0.92121  -0.91975  -0.91944  -0.62903  -0.34091  -0.31147  -0.30683
  -0.09678  -0.08694  -0.07599   0.11573   0.14304   0.15946   0.16120   0.17853
   0.19944   0.22966   0.23695   0.23962   0.38134
 kpt#  18, nband= 21, wtk=  0.01563, kpt=  0.3125  0.3125  0.1875 (reduced coord)
  -1.77812  -0.92047  -0.92044  -0.91974  -0.62879  -0.33408  -0.31177  -0.31002
  -0.09798  -0.09752  -0.07425   0.12245   0.14231   0.14674   0.16955   0.17699
   0.18599   0.23292   0.24211   0.25294   0.39690
 kpt#  19, nband= 21, wtk=  0.03125, kpt=  0.4375  0.3125  0.1875 (reduced coord)
  -1.77810  -0.92114  -0.92041  -0.91971  -0.62770  -0.33191  -0.31022  -0.30850
  -0.10167  -0.09544  -0.08114   0.11390   0.13597   0.14017   0.16372   0.17643
   0.18783   0.23297   0.24022   0.25683   0.40003
 kpt#  20, nband= 21, wtk=  0.01563, kpt=  0.4375  0.4375  0.1875 (reduced coord)
  -1.77809  -0.92110  -0.92110  -0.91968  -0.62675  -0.32471  -0.31039  -0.30930
  -0.10144  -0.10084  -0.08846   0.10876   0.12502   0.13594   0.16802   0.17221
   0.17971   0.24020   0.24363   0.26538   0.41384
 kpt#  21, nband= 21, wtk=  0.01563, kpt=  0.0625  0.0625  0.3125 (reduced coord)
  -1.77818  -0.92088  -0.91880  -0.91880  -0.63251  -0.34817  -0.31413  -0.30871
  -0.08696  -0.08554  -0.07565   0.13648   0.16891   0.17081   0.19049   0.19210
   0.21422   0.21864   0.24451   0.24589   0.34704
 kpt#  22, nband= 21, wtk=  0.03125, kpt=  0.1875  0.0625  0.3125 (reduced coord)
  -1.77816  -0.92084  -0.91950  -0.91877  -0.63139  -0.34397  -0.31357  -0.31033
  -0.08993  -0.08543  -0.07450   0.13210   0.15654   0.16599   0.17368   0.18741
   0.21086   0.22787   0.23523   0.24711   0.36617
 kpt#  23, nband= 21, wtk=  0.03125, kpt=  0.3125  0.0625  0.3125 (reduced coord)
  -1.77814  -0.92077  -0.92049  -0.91873  -0.62978  -0.33934  -0.31385  -0.30986
  -0.09129  -0.08558  -0.07525   0.12417   0.14051   0.14636   0.17078   0.17682
   0.20919   0.22402   0.23425   0.25484   0.38856
 kpt#  24, nband= 21, wtk=  0.03125, kpt=  0.4375  0.0625  0.3125 (reduced coord)
  -1.77812  -0.92119  -0.92073  -0.91871  -0.62862  -0.33784  -0.31247  -0.30902
  -0.09088  -0.08598  -0.07666   0.11400   0.12875   0.13828   0.16417   0.17421
   0.21039   0.22440   0.23279   0.25691   0.39147
 kpt#  25, nband= 21, wtk=  0.01563, kpt=  0.1875  0.1875  0.3125 (reduced coord)
  -1.77815  -0.92079  -0.91949  -0.91946  -0.63034  -0.33935  -0.31221  -0.31155
  -0.09509  -0.09179  -0.07090   0.12762   0.14988   0.16267   0.17267   0.18099
   0.19514   0.23623   0.23940   0.24359   0.37913
 kpt#  26, nband= 21, wtk=  0.03125, kpt=  0.3125  0.1875  0.3125 (reduced coord)
  -1.77812  -0.92074  -0.92045  -0.91943  -0.62883  -0.33396  -0.31220  -0.30994
  -0.09809  -0.09719  -0.07415   0.12253   0.14150   0.14761   0.16941   0.17695
   0.18660   0.23325   0.24271   0.25198   0.39681
 kpt#  27, nband= 21, wtk=  0.03125, kpt=  0.4375  0.1875  0.3125 (reduced coord)
  -1.77810  -0.92115  -0.92069  -0.91940  -0.62774  -0.33184  -0.31055  -0.30849
  -0.10146  -0.09534  -0.08105   0.11393   0.13594   0.14043   0.16362   0.17651
   0.18791   0.23327   0.24095   0.25579   0.39991
 kpt#  28, nband= 21, wtk=  0.01563, kpt=  0.3125  0.3125  0.3125 (reduced coord)
  -1.77810  -0.92069  -0.92041  -0.92039  -0.62746  -0.32676  -0.30984  -0.30936
  -0.10571  -0.10538  -0.08240   0.12198   0.14171   0.14188   0.15694   0.17786
   0.17817   0.24545   0.24606   0.25437   0.40997
 kpt#  29, nband= 21, wtk=  0.03125, kpt=  0.4375  0.3125  0.3125 (reduced coord)
  -1.77808  -0.92109  -0.92065  -0.92037  -0.62648  -0.32273  -0.30797  -0.30782
  -0.11119  -0.10602  -0.09273   0.11322   0.13688   0.14203   0.15221   0.17911
   0.18079   0.24380   0.25254   0.25826   0.41324
 kpt#  30, nband= 21, wtk=  0.01563, kpt=  0.4375  0.4375  0.3125 (reduced coord)
  -1.77806  -0.92105  -0.92105  -0.92061  -0.62557  -0.31547  -0.30725  -0.30673
  -0.11407  -0.11263  -0.10444   0.10795   0.12521   0.14134   0.16009   0.17899
   0.18012   0.25269   0.25468   0.26629   0.42383
 kpt#  31, nband= 21, wtk=  0.01563, kpt=  0.0625  0.0625  0.4375 (reduced coord)
  -1.77817  -0.92157  -0.91877  -0.91877  -0.63098  -0.35241  -0.31360  -0.30339
  -0.08540  -0.08225  -0.07199   0.11922   0.16274   0.16412   0.17807   0.18666
   0.20882   0.21502   0.23776   0.24080   0.34876
 kpt#  32, nband= 21, wtk=  0.03125, kpt=  0.1875  0.0625  0.4375 (reduced coord)
  -1.77815  -0.92152  -0.91947  -0.91875  -0.63003  -0.34661  -0.31256  -0.30621
  -0.08881  -0.08094  -0.07617   0.11712   0.14904   0.15921   0.16442   0.18402
   0.21262   0.22307   0.23097   0.24070   0.36760
 kpt#  33, nband= 21, wtk=  0.03125, kpt=  0.3125  0.0625  0.4375 (reduced coord)
  -1.77812  -0.92145  -0.92045  -0.91871  -0.62865  -0.33769  -0.31215  -0.30960
  -0.09109  -0.08571  -0.07671   0.11414   0.12816   0.13894   0.16471   0.17357
   0.21093   0.22438   0.23310   0.25694   0.39119
 kpt#  34, nband= 21, wtk=  0.03125, kpt=  0.4375  0.0625  0.4375 (reduced coord)
  -1.77811  -0.92140  -0.92114  -0.91868  -0.62766  -0.33062  -0.31306  -0.31138
  -0.09162  -0.09027  -0.07608   0.10864   0.11719   0.12526   0.16419   0.16561
   0.20406   0.23471   0.23863   0.26385   0.40671
 kpt#  35, nband= 21, wtk=  0.01563, kpt=  0.1875  0.1875  0.4375 (reduced coord)
  -1.77813  -0.92147  -0.91945  -0.91943  -0.62910  -0.34072  -0.31119  -0.30761
  -0.09692  -0.08659  -0.07593   0.11589   0.14241   0.16024   0.16086   0.17900
   0.20045   0.23046   0.23693   0.23912   0.38110
 kpt#  36, nband= 21, wtk=  0.03125, kpt=  0.3125  0.1875  0.4375 (reduced coord)
  -1.77811  -0.92141  -0.92042  -0.91940  -0.62777  -0.33166  -0.31037  -0.30900
  -0.10172  -0.09497  -0.08106   0.11416   0.13491   0.14125   0.16367   0.17658
   0.18834   0.23368   0.24064   0.25588   0.39996
 kpt#  37, nband= 21, wtk=  0.03125, kpt=  0.4375  0.1875  0.4375 (reduced coord)
  -1.77809  -0.92136  -0.92110  -0.91937  -0.62681  -0.32440  -0.31094  -0.30949
  -0.10127  -0.10039  -0.08843   0.10897   0.12512   0.13613   0.16741   0.17246
   0.18030   0.24071   0.24417   0.26429   0.41350
 kpt#  38, nband= 21, wtk=  0.01563, kpt=  0.3125  0.3125  0.4375 (reduced coord)
  -1.77808  -0.92135  -0.92038  -0.92036  -0.62650  -0.32247  -0.30863  -0.30758
  -0.11140  -0.10561  -0.09275   0.11344   0.13681   0.14177   0.15244   0.17940
   0.18077   0.24472   0.25213   0.25790   0.41332
 kpt#  39, nband= 21, wtk=  0.03125, kpt=  0.4375  0.3125  0.4375 (reduced coord)
  -1.77806  -0.92131  -0.92105  -0.92033  -0.62560  -0.31512  -0.30778  -0.30674
  -0.11411  -0.11231  -0.10448   0.10812   0.12537   0.14108   0.16029   0.17895
   0.18021   0.25316   0.25527   0.26527   0.42391
 kpt#  40, nband= 21, wtk=  0.01563, kpt=  0.4375  0.4375  0.4375 (reduced coord)
  -1.77805  -0.92127  -0.92102  -0.92101  -0.62473  -0.30805  -0.30535  -0.30488
  -0.12063  -0.12031  -0.11648   0.10336   0.12537   0.12559   0.17571   0.18164
   0.18183   0.26414   0.26475   0.26725   0.43210
 Total charge density [el/Bohr^3]
,     Maximum=    1.3897E+00  at reduced coord.    0.5000    0.5000    0.4167
,Next maximum=    1.3779E+00  at reduced coord.    0.5000    0.5167    0.4167
,     Minimum=    1.0094E-03  at reduced coord.    0.0000    0.0000    0.0000
,Next minimum=    1.3006E-03  at reduced coord.    0.0000    0.0000    0.0167

--------------------------------------------------------------------------------
 Components of total free energy (in Hartree) :

    Kinetic energy  =  6.35889134923075E+01
    Hartree energy  =  2.88986633801296E+01
    XC energy       = -2.13841446916485E+01
    Ewald energy    = -1.05284205962661E+02
    PspCore energy  =  5.06310418077764E+00
    Loc. psp. energy= -1.18831222781975E+02
    NL   psp  energy=  1.60923809389419E+01
    >>>>>>>>> Etotal= -1.31856511444127E+02

 Other information on the energy :
    Total energy(eV)= -3.58799814734662E+03 ; Band energy (Ha)=  -9.3820105283E+00
--------------------------------------------------------------------------------
 rms coord change=  5.9419E-04   atom, delta coord (reduced):
     1        0.000000000000      0.000000000000     -0.000652039141
     2        0.000000000000      0.000000000000     -0.001705709719
     3        0.000000000000      0.000000000000      0.000651595530
     4        0.000000000000      0.000000000000      0.000651595530
     5        0.000000000000      0.000000000000      0.001054557800

 Cartesian components of stress tensor (hartree/bohr^3)
  sigma(1 1)=  1.59469363E-07  sigma(3 2)=  0.00000000E+00
  sigma(2 2)=  1.59469363E-07  sigma(3 1)=  0.00000000E+00
  sigma(3 3)=  8.22176388E-08  sigma(2 1)=  0.00000000E+00

-Cartesian components of stress tensor (GPa)         [Pressure= -3.9341E-03 GPa]
- sigma(1 1)=  4.69174985E-03  sigma(3 2)=  0.00000000E+00
- sigma(2 2)=  4.69174985E-03  sigma(3 1)=  0.00000000E+00
- sigma(3 3)=  2.41892604E-03  sigma(2 1)=  0.00000000E+00

== END DATASET(S) ==============================================================
================================================================================
  
 -outvars: echo values of variables after computation  --------
     acell    7.4385447088E+00  7.4385447088E+00  7.4593022496E+00 Bohr
       amu    1.37327000E+02  4.78800000E+01  1.59994000E+01
    diemac    1.20000000E+01
   dilatmx    1.10000000E+00
      ecut    6.30000000E+01 Hartree
    ecutsm    3.00000000E+00 Hartree
    etotal   -1.3185651144E+02
     fcart   -0.0000000000E+00 -0.0000000000E+00 -2.0459678160E-05
             -0.0000000000E+00 -0.0000000000E+00  1.6561237142E-05
             -0.0000000000E+00 -0.0000000000E+00 -4.7627890804E-06
             -0.0000000000E+00 -0.0000000000E+00 -4.7627890804E-06
             -0.0000000000E+00 -0.0000000000E+00  1.3424019180E-05
    ionmov         2
       ixc         3
       kpt    6.25000000E-02  6.25000000E-02  6.25000000E-02
              1.87500000E-01  6.25000000E-02  6.25000000E-02
              3.12500000E-01  6.25000000E-02  6.25000000E-02
              4.37500000E-01  6.25000000E-02  6.25000000E-02
              1.87500000E-01  1.87500000E-01  6.25000000E-02
              3.12500000E-01  1.87500000E-01  6.25000000E-02
              4.37500000E-01  1.87500000E-01  6.25000000E-02
              3.12500000E-01  3.12500000E-01  6.25000000E-02
              4.37500000E-01  3.12500000E-01  6.25000000E-02
              4.37500000E-01  4.37500000E-01  6.25000000E-02
              6.25000000E-02  6.25000000E-02  1.87500000E-01
              1.87500000E-01  6.25000000E-02  1.87500000E-01
              3.12500000E-01  6.25000000E-02  1.87500000E-01
              4.37500000E-01  6.25000000E-02  1.87500000E-01
              1.87500000E-01  1.87500000E-01  1.87500000E-01
              3.12500000E-01  1.87500000E-01  1.87500000E-01
              4.37500000E-01  1.87500000E-01  1.87500000E-01
              3.12500000E-01  3.12500000E-01  1.87500000E-01
              4.37500000E-01  3.12500000E-01  1.87500000E-01
              4.37500000E-01  4.37500000E-01  1.87500000E-01
              6.25000000E-02  6.25000000E-02  3.12500000E-01
              1.87500000E-01  6.25000000E-02  3.12500000E-01
              3.12500000E-01  6.25000000E-02  3.12500000E-01
              4.37500000E-01  6.25000000E-02  3.12500000E-01
              1.87500000E-01  1.87500000E-01  3.12500000E-01
              3.12500000E-01  1.87500000E-01  3.12500000E-01
              4.37500000E-01  1.87500000E-01  3.12500000E-01
              3.12500000E-01  3.12500000E-01  3.12500000E-01
              4.37500000E-01  3.12500000E-01  3.12500000E-01
              4.37500000E-01  4.37500000E-01  3.12500000E-01
              6.25000000E-02  6.25000000E-02  4.37500000E-01
              1.87500000E-01  6.25000000E-02  4.37500000E-01
              3.12500000E-01  6.25000000E-02  4.37500000E-01
              4.37500000E-01  6.25000000E-02  4.37500000E-01
              1.87500000E-01  1.87500000E-01  4.37500000E-01
              3.12500000E-01  1.87500000E-01  4.37500000E-01
              4.37500000E-01  1.87500000E-01  4.37500000E-01
              3.12500000E-01  3.12500000E-01  4.37500000E-01
              4.37500000E-01  3.12500000E-01  4.37500000E-01
              4.37500000E-01  4.37500000E-01  4.37500000E-01
   kptrlen    5.95088961E+01
    kptopt         1
  kptrlatt    8  0  0   0  8  0   0  0  8
P    mkmem        10
     natom         5
     nband        21
     ngfft        60      60      60
      nkpt        40
     nstep        45
      nsym         8
     ntime        20
    ntypat         3
       occ    2.000000  2.000000  2.000000  2.000000  2.000000  2.000000
              2.000000  2.000000  2.000000  2.000000  2.000000  2.000000
              2.000000  2.000000  2.000000  2.000000  2.000000  2.000000
              2.000000  2.000000  0.000000
   optcell         2
    prtden         0
     prtwf         0
    shiftk    5.00000000E-01  5.00000000E-01  5.00000000E-01
   spgroup        99
    strten    1.5946936299E-07  1.5946936299E-07  8.2217638833E-08
              0.0000000000E+00  0.0000000000E+00  0.0000000000E+00
    symrel    1  0  0   0  1  0   0  0  1       1  0  0   0 -1  0   0  0  1
             -1  0  0   0 -1  0   0  0  1      -1  0  0   0  1  0   0  0  1
              0  1  0   1  0  0   0  0  1       0  1  0  -1  0  0   0  0  1
              0 -1  0  -1  0  0   0  0  1       0 -1  0   1  0  0   0  0  1
    toldff    5.00000000E-07
     typat    1  2  3  3  3
       wtk      0.01563    0.03125    0.03125    0.03125    0.01563    0.03125
                0.03125    0.01563    0.03125    0.01563    0.01563    0.03125
                0.03125    0.03125    0.01563    0.03125    0.03125    0.01563
                0.03125    0.01563    0.01563    0.03125    0.03125    0.03125
                0.01563    0.03125    0.03125    0.01563    0.03125    0.01563
                0.01563    0.03125    0.03125    0.03125    0.01563    0.03125
                0.03125    0.01563    0.03125    0.01563
    xangst    0.0000000000E+00  0.0000000000E+00  1.2680679736E-02
              1.9681541625E+00  1.9681541625E+00  2.0117947590E+00
              0.0000000000E+00  1.9681541625E+00  1.9601930461E+00
              1.9681541625E+00  0.0000000000E+00  1.9601930461E+00
              1.9681541625E+00  1.9681541625E+00 -2.3922417324E-02
     xcart    0.0000000000E+00  0.0000000000E+00  2.3963011880E-02
              3.7192723544E+00  3.7192723544E+00  3.8017411302E+00
              0.0000000000E+00  3.7192723544E+00  3.7042280247E+00
              3.7192723544E+00  0.0000000000E+00  3.7042280247E+00
              3.7192723544E+00  3.7192723544E+00 -4.5206817178E-02
      xred    0.0000000000E+00  0.0000000000E+00  3.2125004562E-03
              5.0000000000E-01  5.0000000000E-01  5.0966444353E-01
              0.0000000000E+00  5.0000000000E-01  4.9659175896E-01
              5.0000000000E-01  0.0000000000E+00  4.9659175896E-01
              5.0000000000E-01  5.0000000000E-01 -6.0604619126E-03
     znucl     56.00000   22.00000    8.00000

================================================================================


- Timing analysis has been suppressed with timopt=0


-
- Proc.   0 individual time (sec): cpu=       8331.1  wall=       8331.1

================================================================================

 Calculation completed.
.Delivered    0 WARNINGs and  11 COMMENTs to log file.
+Overall time at end (sec) : cpu=      33324.4  wall=      33324.4
