
.Version 5.6.4  of ABINIT 
.(sequential version, prepared for a ia64_linux_intel10.1 computer) 

.Copyright (C) 1998-2008 ABINIT group . 
 ABINIT comes with ABSOLUTELY NO WARRANTY.
 It is free software, and you are welcome to redistribute it
 under certain conditions (GNU General Public License,
 see ~abinit/COPYING or http://www.gnu.org/copyleft/gpl.txt).

 ABINIT is a project of the Universite Catholique de Louvain,
 Corning Inc. and other collaborators, see ~abinit/doc/developers/contributors.txt .
 Please read ~abinit/doc/users/acknowledgments.html for suggested
 acknowledgments of the ABINIT effort.
 For more information, see http://www.abinit.org .

.Starting date : Thu 29 Jan 2009.
  
- input  file    -> perovskite-X.in
- output file    -> perovskite-X.out
- root for input  files -> perovskite-Gamma_o
- root for output files -> perovskite-X_o


 DATASET    1 : space group Pm -3 m (#221); Bravais cP (primitive cubic)
================================================================================
 Values of the parameters that define the memory need for DATASET  1 (RF).
   intxc =         0    iscf =         5 xclevel =         1  lmnmax =         4
   lnmax =         4   mband =        20  mffmem =         1   mgfft =        45
P  mkmem =       512  mkqmem =       512  mk1mem =       512 mpssoang=         3
     mpw =      5000  mqgrid =      3001   natom =         5    nfft =     91125
    nkpt =       512  nloalg =         4  nspden =         1 nspinor =         1
  nsppol =         1    nsym =        48  n1xccc =         0  ntypat =         3
  occopt =         1
================================================================================
P This job should need less than                    2447.534 Mbytes of memory.
  Rough estimation (10% accuracy) of disk space for files :
  WF disk file :    781.252 Mbytes ; DEN or POT disk file :      0.697 Mbytes.
================================================================================

 -outvars: echo values of preprocessed input variables --------
     acell    7.4434230817E+00  7.4434230817E+00  7.4434230817E+00 Bohr
       amu    1.37327000E+02  4.78800000E+01  1.59994000E+01
    diemac    9.00000000E+00
      ecut    4.00000000E+01 Hartree
    irdwfk         1
      iscf         5
       ixc         3
    jdtset      1
       kpt    6.25000000E-02  6.25000000E-02  6.25000000E-02
              1.87500000E-01  6.25000000E-02  6.25000000E-02
              3.12500000E-01  6.25000000E-02  6.25000000E-02
              4.37500000E-01  6.25000000E-02  6.25000000E-02
             -4.37500000E-01  6.25000000E-02  6.25000000E-02
             -3.12500000E-01  6.25000000E-02  6.25000000E-02
             -1.87500000E-01  6.25000000E-02  6.25000000E-02
             -6.25000000E-02  6.25000000E-02  6.25000000E-02
              6.25000000E-02  1.87500000E-01  6.25000000E-02
              1.87500000E-01  1.87500000E-01  6.25000000E-02
              3.12500000E-01  1.87500000E-01  6.25000000E-02
              4.37500000E-01  1.87500000E-01  6.25000000E-02
             -4.37500000E-01  1.87500000E-01  6.25000000E-02
             -3.12500000E-01  1.87500000E-01  6.25000000E-02
             -1.87500000E-01  1.87500000E-01  6.25000000E-02
             -6.25000000E-02  1.87500000E-01  6.25000000E-02
              6.25000000E-02  3.12500000E-01  6.25000000E-02
              1.87500000E-01  3.12500000E-01  6.25000000E-02
              3.12500000E-01  3.12500000E-01  6.25000000E-02
              4.37500000E-01  3.12500000E-01  6.25000000E-02
             -4.37500000E-01  3.12500000E-01  6.25000000E-02
             -3.12500000E-01  3.12500000E-01  6.25000000E-02
             -1.87500000E-01  3.12500000E-01  6.25000000E-02
             -6.25000000E-02  3.12500000E-01  6.25000000E-02
              6.25000000E-02  4.37500000E-01  6.25000000E-02
              1.87500000E-01  4.37500000E-01  6.25000000E-02
              3.12500000E-01  4.37500000E-01  6.25000000E-02
              4.37500000E-01  4.37500000E-01  6.25000000E-02
             -4.37500000E-01  4.37500000E-01  6.25000000E-02
             -3.12500000E-01  4.37500000E-01  6.25000000E-02
             -1.87500000E-01  4.37500000E-01  6.25000000E-02
             -6.25000000E-02  4.37500000E-01  6.25000000E-02
              6.25000000E-02 -4.37500000E-01  6.25000000E-02
              1.87500000E-01 -4.37500000E-01  6.25000000E-02
              3.12500000E-01 -4.37500000E-01  6.25000000E-02
              4.37500000E-01 -4.37500000E-01  6.25000000E-02
             -4.37500000E-01 -4.37500000E-01  6.25000000E-02
             -3.12500000E-01 -4.37500000E-01  6.25000000E-02
             -1.87500000E-01 -4.37500000E-01  6.25000000E-02
             -6.25000000E-02 -4.37500000E-01  6.25000000E-02
              6.25000000E-02 -3.12500000E-01  6.25000000E-02
              1.87500000E-01 -3.12500000E-01  6.25000000E-02
              3.12500000E-01 -3.12500000E-01  6.25000000E-02
              4.37500000E-01 -3.12500000E-01  6.25000000E-02
             -4.37500000E-01 -3.12500000E-01  6.25000000E-02
             -3.12500000E-01 -3.12500000E-01  6.25000000E-02
             -1.87500000E-01 -3.12500000E-01  6.25000000E-02
             -6.25000000E-02 -3.12500000E-01  6.25000000E-02
              6.25000000E-02 -1.87500000E-01  6.25000000E-02
              1.87500000E-01 -1.87500000E-01  6.25000000E-02
                       outvar1 : prtvol=0, do not print more k-points.
   kptrlen    5.95473847E+01
    kptopt         3
  kptrlatt    8  0  0   0  8  0   0  0  8
P    mkmem       512
P   mkqmem       512
P   mk1mem       512
     natom         5
     nband        20
    ndtset         1
     ngfft        45      45      45
      nkpt       512
      nqpt         1
     nstep        70
      nsym        48
    ntypat         3
       occ    2.000000  2.000000  2.000000  2.000000  2.000000  2.000000
              2.000000  2.000000  2.000000  2.000000  2.000000  2.000000
              2.000000  2.000000  2.000000  2.000000  2.000000  2.000000
              2.000000  2.000000
 optdriver         1
       qpt    5.00000000E-01  0.00000000E+00  0.00000000E+00
   rfatpol         1       5
     rfdir         1       1       1
    rfphon         1
    shiftk    5.00000000E-01  5.00000000E-01  5.00000000E-01
   spgroup       221
    symrel    1  0  0   0  1  0   0  0  1      -1  0  0   0 -1  0   0  0 -1
             -1  0  0   0  1  0   0  0 -1       1  0  0   0 -1  0   0  0  1
             -1  0  0   0 -1  0   0  0  1       1  0  0   0  1  0   0  0 -1
              1  0  0   0 -1  0   0  0 -1      -1  0  0   0  1  0   0  0  1
              0  1  0   1  0  0   0  0  1       0 -1  0  -1  0  0   0  0 -1
              0 -1  0   1  0  0   0  0 -1       0  1  0  -1  0  0   0  0  1
              0 -1  0  -1  0  0   0  0  1       0  1  0   1  0  0   0  0 -1
              0  1  0  -1  0  0   0  0 -1       0 -1  0   1  0  0   0  0  1
              0  0  1   1  0  0   0  1  0       0  0 -1  -1  0  0   0 -1  0
              0  0 -1   1  0  0   0 -1  0       0  0  1  -1  0  0   0  1  0
              0  0 -1  -1  0  0   0  1  0       0  0  1   1  0  0   0 -1  0
              0  0  1  -1  0  0   0 -1  0       0  0 -1   1  0  0   0  1  0
              1  0  0   0  0  1   0  1  0      -1  0  0   0  0 -1   0 -1  0
             -1  0  0   0  0  1   0 -1  0       1  0  0   0  0 -1   0  1  0
             -1  0  0   0  0 -1   0  1  0       1  0  0   0  0  1   0 -1  0
              1  0  0   0  0 -1   0 -1  0      -1  0  0   0  0  1   0  1  0
              0  1  0   0  0  1   1  0  0       0 -1  0   0  0 -1  -1  0  0
              0 -1  0   0  0  1  -1  0  0       0  1  0   0  0 -1   1  0  0
              0 -1  0   0  0 -1   1  0  0       0  1  0   0  0  1  -1  0  0
              0  1  0   0  0 -1  -1  0  0       0 -1  0   0  0  1   1  0  0
              0  0  1   0  1  0   1  0  0       0  0 -1   0 -1  0  -1  0  0
              0  0 -1   0  1  0  -1  0  0       0  0  1   0 -1  0   1  0  0
              0  0 -1   0 -1  0   1  0  0       0  0  1   0  1  0  -1  0  0
              0  0  1   0 -1  0  -1  0  0       0  0 -1   0  1  0   1  0  0
    tolvrs    1.00000000E-08
     typat    1  2  3  3  3
       wtk      0.00195    0.00195    0.00195    0.00195    0.00195    0.00195
                0.00195    0.00195    0.00195    0.00195    0.00195    0.00195
                0.00195    0.00195    0.00195    0.00195    0.00195    0.00195
                0.00195    0.00195    0.00195    0.00195    0.00195    0.00195
                0.00195    0.00195    0.00195    0.00195    0.00195    0.00195
                0.00195    0.00195    0.00195    0.00195    0.00195    0.00195
                0.00195    0.00195    0.00195    0.00195    0.00195    0.00195
                0.00195    0.00195    0.00195    0.00195    0.00195    0.00195
                0.00195    0.00195
                outvar1 : prtvol=0, do not print more k-points.
    xangst    0.0000000000E+00  0.0000000000E+00  0.0000000000E+00
              1.9694449244E+00  1.9694449244E+00  1.9694449244E+00
              0.0000000000E+00  1.9694449244E+00  1.9694449244E+00
              1.9694449244E+00  0.0000000000E+00  1.9694449244E+00
              1.9694449244E+00  1.9694449244E+00  0.0000000000E+00
     xcart    0.0000000000E+00  0.0000000000E+00  0.0000000000E+00
              3.7217115408E+00  3.7217115408E+00  3.7217115408E+00
              0.0000000000E+00  3.7217115408E+00  3.7217115408E+00
              3.7217115408E+00  0.0000000000E+00  3.7217115408E+00
              3.7217115408E+00  3.7217115408E+00  0.0000000000E+00
      xred    0.0000000000E+00  0.0000000000E+00  0.0000000000E+00
              5.0000000000E-01  5.0000000000E-01  5.0000000000E-01
              0.0000000000E+00  5.0000000000E-01  5.0000000000E-01
              5.0000000000E-01  0.0000000000E+00  5.0000000000E-01
              5.0000000000E-01  5.0000000000E-01  0.0000000000E+00
     znucl     56.00000   22.00000    8.00000

================================================================================

 chkinp: Checking input parameters for consistency, jdtset= 1.

================================================================================
== DATASET  1 ==================================================================

 Real(R)+Recip(G) space primitive vectors, cartesian coordinates (Bohr,Bohr^-1):
 R(1)=  7.4434231  0.0000000  0.0000000  G(1)=  0.1343468  0.0000000  0.0000000
 R(2)=  0.0000000  7.4434231  0.0000000  G(2)=  0.0000000  0.1343468  0.0000000
 R(3)=  0.0000000  0.0000000  7.4434231  G(3)=  0.0000000  0.0000000  0.1343468
 Unit cell volume ucvol=  4.1239949E+02 bohr^3
 Angles (23,13,12)=  9.00000000E+01  9.00000000E+01  9.00000000E+01 degrees
 setup1 : take into account q-point for computing boxcut.

 getcut: wavevector=  0.5000  0.0000  0.0000  ngfft=  45  45  45
         ecut(hartree)=     40.000   => boxcut(ratio)=   2.02909

--- Pseudopotential description ------------------------------------------------
- pspini: atom type   1  psp file is ../56ba.psp.mod
- pspatm: opening atomic psp file    ../56ba.psp.mod
 Barium.ion 5s2.5p6.6s0.5d0 rcs=rcp=rcd=1.7 ecut=22/28
  56.00000  10.00000    940000                znucl, zion, pspdat
    4    3    2    2      2001   0.00000      pspcod,pspxc,lmax,lloc,mmax,r2well
    0   0.000   0.000    2   1.6965489        l,e99.0,e99.9,nproj,rcpsp
   0.00000000   0.00000000   0.00000000   0.00000000     rms, ekb1, ekb2, epsatm
    1   0.000   0.000    2   1.6965489        l,e99.0,e99.9,nproj,rcpsp
   0.00000000   0.00000000   0.00000000   0.00000000     rms, ekb1, ekb2, epsatm
    2   0.000   0.000    0   1.6965489        l,e99.0,e99.9,nproj,rcpsp
   0.00000000   0.00000000   0.00000000   0.00000000     rms, ekb1, ekb2, epsatm
    0.00000000000000    0.00000000000000    0.00000000000000   rchrg,fchrg,qchrg
 pspatm: epsatm=   43.25917021
         --- l  ekb(1:nproj) -->
             0   -9.646692   27.266828
             1   -6.938476   21.148499
 pspatm: atomic psp has been read  and splines computed

- pspini: atom type   2  psp file is ../22ti.psp.mod
- pspatm: opening atomic psp file    ../22ti.psp.mod
 Titane.ion 3s2.3p6.4s0.3d2 rcd=1.65, rcs=rc0=1.25, ecut 32/54
  22.00000  12.00000    940000                znucl, zion, pspdat
    4    3    2    2      2001   0.00000      pspcod,pspxc,lmax,lloc,mmax,r2well
    0   0.000   0.000    2   1.2533577        l,e99.0,e99.9,nproj,rcpsp
   0.00000000   0.00000000   0.00000000   0.00000000     rms, ekb1, ekb2, epsatm
    1   0.000   0.000    2   1.2533577        l,e99.0,e99.9,nproj,rcpsp
   0.00000000   0.00000000   0.00000000   0.00000000     rms, ekb1, ekb2, epsatm
    2   0.000   0.000    0   1.6491622        l,e99.0,e99.9,nproj,rcpsp
   0.00000000   0.00000000   0.00000000   0.00000000     rms, ekb1, ekb2, epsatm
    0.00000000000000    0.00000000000000    0.00000000000000   rchrg,fchrg,qchrg
 pspatm: epsatm=    4.67708954
         --- l  ekb(1:nproj) -->
             0    9.517316   -2.344682
             1    5.011406   -0.741179
 pspatm: atomic psp has been read  and splines computed

- pspini: atom type   3  psp file is ../8o.phoney.mod
- pspatm: opening atomic psp file    ../8o.phoney.mod
 Compromise psp for oxygen with rc=1.5 ec=25 double reference
   8.00000   6.00000    980710                znucl, zion, pspdat
    5    3    1    1       600   0.00000      pspcod,pspxc,lmax,lloc,mmax,r2well
    1.000000E-06    3.075239E-02              r1 and al (Hamman grid)
    0   0.000   0.000    2   1.4915765        l,e99.0,e99.9,nproj,rcpsp
   0.00000000   0.00000000   0.00000000   0.00000000     rms, ekb1, ekb2, epsatm
    1   0.000   0.000    0   1.4915765        l,e99.0,e99.9,nproj,rcpsp
   0.00000000   0.00000000   0.00000000   0.00000000     rms, ekb1, ekb2, epsatm
    0.00000000000000    0.00000000000000    0.00000000000000   rchrg,fchrg,qchrg
 pspatm: epsatm=    1.43569736
         --- l  ekb(1:nproj) -->
             0    5.763361   -1.798421
 pspatm: atomic psp has been read  and splines computed

   2.08973407E+03                                ecore*ucvol(ha*bohr**3)
--------------------------------------------------------------------------------

-inwffil : will read wavefunctions from disk file perovskite-Gamma_o_DS1_WFK
- newkpt: read input wf with ikpt,npw=   1    4996, make ikpt,npw=   1    4996
- newkpt: read input wf with ikpt,npw=   2    4976, make ikpt,npw=   2    4976
- newkpt: read input wf with ikpt,npw=   3    4998, make ikpt,npw=   3    4998
- newkpt: read input wf with ikpt,npw=   4    4986, make ikpt,npw=   4    4986
- newkpt: read input wf with ikpt,npw=   4    4986, make ikpt,npw=   5    4986
- newkpt: read input wf with ikpt,npw=   3    4998, make ikpt,npw=   6    4998
- newkpt: read input wf with ikpt,npw=   2    4976, make ikpt,npw=   7    4976
- newkpt: read input wf with ikpt,npw=   1    4996, make ikpt,npw=   8    4996
- newkpt: read input wf with ikpt,npw=   2    4976, make ikpt,npw=   9    4976
- newkpt: read input wf with ikpt,npw=   5    4985, make ikpt,npw=  10    4985
- newkpt: read input wf with ikpt,npw=   6    5000, make ikpt,npw=  11    5000
- newkpt: read input wf with ikpt,npw=   7    4987, make ikpt,npw=  12    4987
- newkpt: read input wf with ikpt,npw=   7    4987, make ikpt,npw=  13    4987
- newkpt: read input wf with ikpt,npw=   6    5000, make ikpt,npw=  14    5000
- newkpt: read input wf with ikpt,npw=   5    4985, make ikpt,npw=  15    4985
- newkpt: read input wf with ikpt,npw=   2    4976, make ikpt,npw=  16    4976
- newkpt: read input wf with ikpt,npw=   3    4998, make ikpt,npw=  17    4998
- newkpt: read input wf with ikpt,npw=   6    5000, make ikpt,npw=  18    5000
- newkpt: read input wf with ikpt,npw=   8    4973, make ikpt,npw=  19    4973
- newkpt: read input wf with ikpt,npw=   9    4983, make ikpt,npw=  20    4983
- newkpt: read input wf with ikpt,npw=   9    4983, make ikpt,npw=  21    4983
- newkpt: read input wf with ikpt,npw=   8    4973, make ikpt,npw=  22    4973
- newkpt: read input wf with ikpt,npw=   6    5000, make ikpt,npw=  23    5000
- newkpt: read input wf with ikpt,npw=   3    4998, make ikpt,npw=  24    4998
- newkpt: read input wf with ikpt,npw=   4    4986, make ikpt,npw=  25    4986
- newkpt: read input wf with ikpt,npw=   7    4987, make ikpt,npw=  26    4987
- newkpt: read input wf with ikpt,npw=   9    4983, make ikpt,npw=  27    4983
- newkpt: read input wf with ikpt,npw=  10    4989, make ikpt,npw=  28    4989
- newkpt: read input wf with ikpt,npw=  10    4989, make ikpt,npw=  29    4989
- newkpt: read input wf with ikpt,npw=   9    4983, make ikpt,npw=  30    4983
- newkpt: read input wf with ikpt,npw=   7    4987, make ikpt,npw=  31    4987
- newkpt: read input wf with ikpt,npw=   4    4986, make ikpt,npw=  32    4986
- newkpt: read input wf with ikpt,npw=   4    4986, make ikpt,npw=  33    4986
- newkpt: read input wf with ikpt,npw=   7    4987, make ikpt,npw=  34    4987
- newkpt: read input wf with ikpt,npw=   9    4983, make ikpt,npw=  35    4983
- newkpt: read input wf with ikpt,npw=  10    4989, make ikpt,npw=  36    4989
- newkpt: read input wf with ikpt,npw=  10    4989, make ikpt,npw=  37    4989
- newkpt: read input wf with ikpt,npw=   9    4983, make ikpt,npw=  38    4983
- newkpt: read input wf with ikpt,npw=   7    4987, make ikpt,npw=  39    4987
- newkpt: read input wf with ikpt,npw=   4    4986, make ikpt,npw=  40    4986
- newkpt: read input wf with ikpt,npw=   3    4998, make ikpt,npw=  41    4998
- newkpt: read input wf with ikpt,npw=   6    5000, make ikpt,npw=  42    5000
- newkpt: read input wf with ikpt,npw=   8    4973, make ikpt,npw=  43    4973
- newkpt: read input wf with ikpt,npw=   9    4983, make ikpt,npw=  44    4983
- newkpt: read input wf with ikpt,npw=   9    4983, make ikpt,npw=  45    4983
- newkpt: read input wf with ikpt,npw=   8    4973, make ikpt,npw=  46    4973
- newkpt: read input wf with ikpt,npw=   6    5000, make ikpt,npw=  47    5000
- newkpt: read input wf with ikpt,npw=   3    4998, make ikpt,npw=  48    4998
- newkpt: read input wf with ikpt,npw=   2    4976, make ikpt,npw=  49    4976
- newkpt: read input wf with ikpt,npw=   5    4985, make ikpt,npw=  50    4985
- newkpt : prtvol=0 or 1, do not print more k-points.
 

 ==>  initialize data related to q vector <==

 The list of irreducible perturbations for this q vector is:
    1)    idir= 1    ipert=   1
    2)    idir= 2    ipert=   1
    3)    idir= 1    ipert=   2
    4)    idir= 2    ipert=   2
    5)    idir= 1    ipert=   3
    6)    idir= 2    ipert=   3
    7)    idir= 1    ipert=   4
    8)    idir= 2    ipert=   4
    9)    idir= 3    ipert=   4

================================================================================

 The perturbation idir=   3  ipert=   1 is
 symmetric of a previously calculated perturbation.
 So, its SCF calculation is not needed.


 The perturbation idir=   3  ipert=   2 is
 symmetric of a previously calculated perturbation.
 So, its SCF calculation is not needed.


 The perturbation idir=   3  ipert=   3 is
 symmetric of a previously calculated perturbation.
 So, its SCF calculation is not needed.


 The perturbation idir=   1  ipert=   5 is
 symmetric of a previously calculated perturbation.
 So, its SCF calculation is not needed.


 The perturbation idir=   2  ipert=   5 is
 symmetric of a previously calculated perturbation.
 So, its SCF calculation is not needed.


 The perturbation idir=   3  ipert=   5 is
 symmetric of a previously calculated perturbation.
 So, its SCF calculation is not needed.


--------------------------------------------------------------------------------
 Perturbation wavevector (in red.coord.)   0.500000  0.000000  0.000000
 Perturbation : displacement of atom   1   along direction   1
 Found     8 symmetries that leave the perturbation invariant.
 symkpt : the number of k-points, thanks to the symmetries,
 is reduced to    80 .

--------------------------------------------------------------------------------

-inwffil : will read wavefunctions from disk file perovskite-Gamma_o_DS1_WFK
- newkpt: read input wf with ikpt,npw=   1    4996, make ikpt,npw=   1    4996
- newkpt: read input wf with ikpt,npw=   2    4976, make ikpt,npw=   2    4976
- newkpt: read input wf with ikpt,npw=   3    4998, make ikpt,npw=   3    4998
- newkpt: read input wf with ikpt,npw=   4    4986, make ikpt,npw=   4    4986
- newkpt: read input wf with ikpt,npw=   4    4986, make ikpt,npw=   5    4986
- newkpt: read input wf with ikpt,npw=   3    4998, make ikpt,npw=   6    4998
- newkpt: read input wf with ikpt,npw=   2    4976, make ikpt,npw=   7    4976
- newkpt: read input wf with ikpt,npw=   1    4996, make ikpt,npw=   8    4996
- newkpt: read input wf with ikpt,npw=   2    4976, make ikpt,npw=   9    4976
- newkpt: read input wf with ikpt,npw=   5    4985, make ikpt,npw=  10    4985
- newkpt: read input wf with ikpt,npw=   6    5000, make ikpt,npw=  11    5000
- newkpt: read input wf with ikpt,npw=   7    4987, make ikpt,npw=  12    4987
- newkpt: read input wf with ikpt,npw=   7    4987, make ikpt,npw=  13    4987
- newkpt: read input wf with ikpt,npw=   6    5000, make ikpt,npw=  14    5000
- newkpt: read input wf with ikpt,npw=   5    4985, make ikpt,npw=  15    4985
- newkpt: read input wf with ikpt,npw=   2    4976, make ikpt,npw=  16    4976
- newkpt: read input wf with ikpt,npw=   3    4998, make ikpt,npw=  17    4998
- newkpt: read input wf with ikpt,npw=   6    5000, make ikpt,npw=  18    5000
- newkpt: read input wf with ikpt,npw=   8    4973, make ikpt,npw=  19    4973
- newkpt: read input wf with ikpt,npw=   9    4983, make ikpt,npw=  20    4983
- newkpt: read input wf with ikpt,npw=   9    4983, make ikpt,npw=  21    4983
- newkpt: read input wf with ikpt,npw=   8    4973, make ikpt,npw=  22    4973
- newkpt: read input wf with ikpt,npw=   6    5000, make ikpt,npw=  23    5000
- newkpt: read input wf with ikpt,npw=   3    4998, make ikpt,npw=  24    4998
- newkpt: read input wf with ikpt,npw=   4    4986, make ikpt,npw=  25    4986
- newkpt: read input wf with ikpt,npw=   7    4987, make ikpt,npw=  26    4987
- newkpt: read input wf with ikpt,npw=   9    4983, make ikpt,npw=  27    4983
- newkpt: read input wf with ikpt,npw=  10    4989, make ikpt,npw=  28    4989
- newkpt: read input wf with ikpt,npw=  10    4989, make ikpt,npw=  29    4989
- newkpt: read input wf with ikpt,npw=   9    4983, make ikpt,npw=  30    4983
- newkpt: read input wf with ikpt,npw=   7    4987, make ikpt,npw=  31    4987
- newkpt: read input wf with ikpt,npw=   4    4986, make ikpt,npw=  32    4986
- newkpt: read input wf with ikpt,npw=   5    4985, make ikpt,npw=  33    4985
- newkpt: read input wf with ikpt,npw=  11    4983, make ikpt,npw=  34    4983
- newkpt: read input wf with ikpt,npw=  12    4985, make ikpt,npw=  35    4985
- newkpt: read input wf with ikpt,npw=  13    4996, make ikpt,npw=  36    4996
- newkpt: read input wf with ikpt,npw=  13    4996, make ikpt,npw=  37    4996
- newkpt: read input wf with ikpt,npw=  12    4985, make ikpt,npw=  38    4985
- newkpt: read input wf with ikpt,npw=  11    4983, make ikpt,npw=  39    4983
- newkpt: read input wf with ikpt,npw=   5    4985, make ikpt,npw=  40    4985
- newkpt: read input wf with ikpt,npw=   6    5000, make ikpt,npw=  41    5000
- newkpt: read input wf with ikpt,npw=  12    4985, make ikpt,npw=  42    4985
- newkpt: read input wf with ikpt,npw=  14    4988, make ikpt,npw=  43    4988
- newkpt: read input wf with ikpt,npw=  15    4981, make ikpt,npw=  44    4981
- newkpt: read input wf with ikpt,npw=  15    4981, make ikpt,npw=  45    4981
- newkpt: read input wf with ikpt,npw=  14    4988, make ikpt,npw=  46    4988
- newkpt: read input wf with ikpt,npw=  12    4985, make ikpt,npw=  47    4985
- newkpt: read input wf with ikpt,npw=   6    5000, make ikpt,npw=  48    5000
- newkpt: read input wf with ikpt,npw=   7    4987, make ikpt,npw=  49    4987
- newkpt: read input wf with ikpt,npw=  13    4996, make ikpt,npw=  50    4996
- newkpt : prtvol=0 or 1, do not print more k-points.
 
--------------------------------------------------------------------------------

-inwffil : will read wavefunctions from disk file perovskite-Gamma_o_DS1_WFK
- newkpt: read input wf with ikpt,npw=   4    4986, make ikpt,npw=   1    4986
- newkpt: read input wf with ikpt,npw=   3    4998, make ikpt,npw=   2    4998
- newkpt: read input wf with ikpt,npw=   2    4976, make ikpt,npw=   3    4976
- newkpt: read input wf with ikpt,npw=   1    4996, make ikpt,npw=   4    4996
- newkpt: read input wf with ikpt,npw=   1    4996, make ikpt,npw=   5    4996
- newkpt: read input wf with ikpt,npw=   2    4976, make ikpt,npw=   6    4976
- newkpt: read input wf with ikpt,npw=   3    4998, make ikpt,npw=   7    4998
- newkpt: read input wf with ikpt,npw=   4    4986, make ikpt,npw=   8    4986
- newkpt: read input wf with ikpt,npw=   7    4987, make ikpt,npw=   9    4987
- newkpt: read input wf with ikpt,npw=   6    5000, make ikpt,npw=  10    5000
- newkpt: read input wf with ikpt,npw=   5    4985, make ikpt,npw=  11    4985
- newkpt: read input wf with ikpt,npw=   2    4976, make ikpt,npw=  12    4976
- newkpt: read input wf with ikpt,npw=   2    4976, make ikpt,npw=  13    4976
- newkpt: read input wf with ikpt,npw=   5    4985, make ikpt,npw=  14    4985
- newkpt: read input wf with ikpt,npw=   6    5000, make ikpt,npw=  15    5000
- newkpt: read input wf with ikpt,npw=   7    4987, make ikpt,npw=  16    4987
- newkpt: read input wf with ikpt,npw=   9    4983, make ikpt,npw=  17    4983
- newkpt: read input wf with ikpt,npw=   8    4973, make ikpt,npw=  18    4973
- newkpt: read input wf with ikpt,npw=   6    5000, make ikpt,npw=  19    5000
- newkpt: read input wf with ikpt,npw=   3    4998, make ikpt,npw=  20    4998
- newkpt: read input wf with ikpt,npw=   3    4998, make ikpt,npw=  21    4998
- newkpt: read input wf with ikpt,npw=   6    5000, make ikpt,npw=  22    5000
- newkpt: read input wf with ikpt,npw=   8    4973, make ikpt,npw=  23    4973
- newkpt: read input wf with ikpt,npw=   9    4983, make ikpt,npw=  24    4983
- newkpt: read input wf with ikpt,npw=  10    4989, make ikpt,npw=  25    4989
- newkpt: read input wf with ikpt,npw=   9    4983, make ikpt,npw=  26    4983
- newkpt: read input wf with ikpt,npw=   7    4987, make ikpt,npw=  27    4987
- newkpt: read input wf with ikpt,npw=   4    4986, make ikpt,npw=  28    4986
- newkpt: read input wf with ikpt,npw=   4    4986, make ikpt,npw=  29    4986
- newkpt: read input wf with ikpt,npw=   7    4987, make ikpt,npw=  30    4987
- newkpt: read input wf with ikpt,npw=   9    4983, make ikpt,npw=  31    4983
- newkpt: read input wf with ikpt,npw=  10    4989, make ikpt,npw=  32    4989
- newkpt: read input wf with ikpt,npw=  13    4996, make ikpt,npw=  33    4996
- newkpt: read input wf with ikpt,npw=  12    4985, make ikpt,npw=  34    4985
- newkpt: read input wf with ikpt,npw=  11    4983, make ikpt,npw=  35    4983
- newkpt: read input wf with ikpt,npw=   5    4985, make ikpt,npw=  36    4985
- newkpt: read input wf with ikpt,npw=   5    4985, make ikpt,npw=  37    4985
- newkpt: read input wf with ikpt,npw=  11    4983, make ikpt,npw=  38    4983
- newkpt: read input wf with ikpt,npw=  12    4985, make ikpt,npw=  39    4985
- newkpt: read input wf with ikpt,npw=  13    4996, make ikpt,npw=  40    4996
- newkpt: read input wf with ikpt,npw=  15    4981, make ikpt,npw=  41    4981
- newkpt: read input wf with ikpt,npw=  14    4988, make ikpt,npw=  42    4988
- newkpt: read input wf with ikpt,npw=  12    4985, make ikpt,npw=  43    4985
- newkpt: read input wf with ikpt,npw=   6    5000, make ikpt,npw=  44    5000
- newkpt: read input wf with ikpt,npw=   6    5000, make ikpt,npw=  45    5000
- newkpt: read input wf with ikpt,npw=  12    4985, make ikpt,npw=  46    4985
- newkpt: read input wf with ikpt,npw=  14    4988, make ikpt,npw=  47    4988
- newkpt: read input wf with ikpt,npw=  15    4981, make ikpt,npw=  48    4981
- newkpt: read input wf with ikpt,npw=  16    4983, make ikpt,npw=  49    4983
- newkpt: read input wf with ikpt,npw=  15    4981, make ikpt,npw=  50    4981
- newkpt : prtvol=0 or 1, do not print more k-points.
 
 Initialisation of the first-order wave-functions :
  ireadwf=   0
P newkpt: treating     20 bands with npw=    4986 for ikpt=   1
P newkpt: treating     20 bands with npw=    4998 for ikpt=   2
P newkpt: treating     20 bands with npw=    4976 for ikpt=   3
P newkpt: treating     20 bands with npw=    4996 for ikpt=   4
P newkpt: treating     20 bands with npw=    4996 for ikpt=   5
P newkpt: treating     20 bands with npw=    4976 for ikpt=   6
P newkpt: treating     20 bands with npw=    4998 for ikpt=   7
P newkpt: treating     20 bands with npw=    4986 for ikpt=   8
P newkpt: treating     20 bands with npw=    4987 for ikpt=   9
P newkpt: treating     20 bands with npw=    5000 for ikpt=  10
P newkpt: treating     20 bands with npw=    4985 for ikpt=  11
P newkpt: treating     20 bands with npw=    4976 for ikpt=  12
P newkpt: treating     20 bands with npw=    4976 for ikpt=  13
P newkpt: treating     20 bands with npw=    4985 for ikpt=  14
P newkpt: treating     20 bands with npw=    5000 for ikpt=  15
P newkpt: treating     20 bands with npw=    4987 for ikpt=  16
P newkpt: treating     20 bands with npw=    4983 for ikpt=  17
P newkpt: treating     20 bands with npw=    4973 for ikpt=  18
P newkpt: treating     20 bands with npw=    5000 for ikpt=  19
P newkpt: treating     20 bands with npw=    4998 for ikpt=  20
P newkpt: treating     20 bands with npw=    4998 for ikpt=  21
P newkpt: treating     20 bands with npw=    5000 for ikpt=  22
P newkpt: treating     20 bands with npw=    4973 for ikpt=  23
P newkpt: treating     20 bands with npw=    4983 for ikpt=  24
P newkpt: treating     20 bands with npw=    4989 for ikpt=  25
P newkpt: treating     20 bands with npw=    4983 for ikpt=  26
P newkpt: treating     20 bands with npw=    4987 for ikpt=  27
P newkpt: treating     20 bands with npw=    4986 for ikpt=  28
P newkpt: treating     20 bands with npw=    4986 for ikpt=  29
P newkpt: treating     20 bands with npw=    4987 for ikpt=  30
P newkpt: treating     20 bands with npw=    4983 for ikpt=  31
P newkpt: treating     20 bands with npw=    4989 for ikpt=  32
P newkpt: treating     20 bands with npw=    4996 for ikpt=  33
P newkpt: treating     20 bands with npw=    4985 for ikpt=  34
P newkpt: treating     20 bands with npw=    4983 for ikpt=  35
P newkpt: treating     20 bands with npw=    4985 for ikpt=  36
P newkpt: treating     20 bands with npw=    4985 for ikpt=  37
P newkpt: treating     20 bands with npw=    4983 for ikpt=  38
P newkpt: treating     20 bands with npw=    4985 for ikpt=  39
P newkpt: treating     20 bands with npw=    4996 for ikpt=  40
P newkpt: treating     20 bands with npw=    4981 for ikpt=  41
P newkpt: treating     20 bands with npw=    4988 for ikpt=  42
P newkpt: treating     20 bands with npw=    4985 for ikpt=  43
P newkpt: treating     20 bands with npw=    5000 for ikpt=  44
P newkpt: treating     20 bands with npw=    5000 for ikpt=  45
P newkpt: treating     20 bands with npw=    4985 for ikpt=  46
P newkpt: treating     20 bands with npw=    4988 for ikpt=  47
P newkpt: treating     20 bands with npw=    4981 for ikpt=  48
P newkpt: treating     20 bands with npw=    4983 for ikpt=  49
P newkpt: treating     20 bands with npw=    4981 for ikpt=  50
  newkpt: prtvol=0 or 1, do not print more k-points.
 

     iter   2DEtotal(Ha)        deltaE(Ha) residm    vres2
-ETOT  1   2480.5250747252      1.407E+03 8.126E+01 4.607E+07
 ETOT  2   183.50330540855     -2.297E+03 4.020E+01 3.709E+05
 ETOT  3   105.00660440259     -7.850E+01 3.362E+00 3.503E+05
 ETOT  4   226.37270274874      1.214E+02 4.578E+00 9.952E+05
 ETOT  5   17.098851187333     -2.093E+02 3.148E+00 3.727E+04
 ETOT  6   12.696205541985     -4.403E+00 1.570E+00 9.845E+03
 ETOT  7   11.659826441358     -1.036E+00 2.093E-01 5.340E+03
 ETOT  8   10.268787076653     -1.391E+00 7.642E-02 4.620E+03
 ETOT  9   10.598397374581      3.296E-01 1.873E-02 6.368E+03
 ETOT 10   10.843936076484      2.455E-01 9.302E-03 6.814E+03
 ETOT 11   10.610836425398     -2.331E-01 3.305E-03 5.722E+03
 ETOT 12   9.7071639930141     -9.037E-01 5.433E-02 1.071E+04
 ETOT 13   11.028622411761      1.321E+00 4.117E-02 2.455E+04
 ETOT 14   10.336605286120     -6.920E-01 3.758E-03 6.100E+03
 ETOT 15   11.200307047972      8.637E-01 4.482E-03 2.307E+04
 ETOT 16   10.486578056317     -7.137E-01 3.449E-03 6.195E+03
 ETOT 17   8.4576837758195     -2.029E+00 8.835E-03 4.234E+03
 ETOT 18   8.3358530996063     -1.218E-01 8.572E-04 1.682E+03
 ETOT 19   8.3773093027687      4.146E-02 3.119E-04 3.421E+02
 ETOT 20   8.3007280489123     -7.658E-02 7.753E-05 6.438E+02
 ETOT 21   8.2971821990816     -3.546E-03 1.761E-05 8.613E+02
 ETOT 22   8.2717646098508     -2.542E-02 2.768E-05 4.403E+02
 ETOT 23   8.2544550626867     -1.731E-02 4.880E-05 3.057E+01
 ETOT 24   8.2511039420992     -3.351E-03 1.532E-05 3.039E+00
 ETOT 25   8.2506608181304     -4.431E-04 1.160E-06 5.325E-01
 ETOT 26   8.2505791701874     -8.165E-05 1.360E-07 1.436E-01
 ETOT 27   8.2505347735287     -4.440E-05 5.469E-07 2.158E-01
 ETOT 28   8.2505236555351     -1.112E-05 2.641E-08 2.273E-01
 ETOT 29   8.2505225755945     -1.080E-06 5.192E-09 2.005E-01
 ETOT 30   8.2505117838882     -1.079E-05 1.248E-08 1.178E-01
 ETOT 31   8.2505097967942     -1.987E-06 1.295E-08 8.893E-02
 ETOT 32   8.2505054316773     -4.365E-06 5.434E-09 1.435E-02
 ETOT 33   8.2505050332111     -3.985E-07 2.746E-09 2.374E-03
 ETOT 34   8.2505047101140     -3.231E-07 4.173E-09 9.055E-04
 ETOT 35   8.2505045568130     -1.533E-07 3.391E-10 1.211E-04
 ETOT 36   8.2505045481034     -8.710E-09 4.112E-11 1.047E-04
 ETOT 37   8.2505045166456     -3.146E-08 6.362E-11 1.017E-04
 ETOT 38   8.2505045159739     -6.717E-10 1.077E-11 1.319E-04
 ETOT 39   8.2505045088856     -7.088E-09 1.574E-11 3.349E-05
 ETOT 40   8.2505045070980     -1.788E-09 5.899E-12 7.649E-06
 ETOT 41   8.2505045066807     -4.172E-10 1.804E-12 2.059E-06
 ETOT 42   8.2505045065789     -1.019E-10 3.591E-13 6.908E-07
 ETOT 43   8.2505045065429     -3.593E-11 2.171E-13 6.268E-08
 ETOT 44   8.2505045065379     -5.002E-12 1.531E-13 2.718E-09

 At SCF step   44       vres2   =  2.72E-09 < tolvrs=  1.00E-08 =>converged.
================================================================================

 ----iterations are completed or convergence reached----

 Mean square residual over all n,k,spin=   8.3560E-15; max=  1.5309E-13
   0.0625  0.0625  0.0625    1  8.81888E-15 kpt; spin; max resid(k); each band:
 2.52E-17 3.29E-19 4.81E-19 4.00E-19 9.82E-19 1.81E-16 4.80E-16 2.29E-16
 2.89E-17 3.20E-17 3.96E-17 1.38E-15 6.97E-15 1.55E-15 1.34E-15 4.90E-16
 2.06E-15 3.35E-15 8.82E-15 1.87E-15
   0.1875  0.0625  0.0625    1  2.62710E-14 kpt; spin; max resid(k); each band:
 2.23E-17 4.90E-19 3.40E-19 4.71E-19 1.28E-18 2.34E-16 9.30E-17 1.36E-16
 8.00E-17 4.41E-17 1.08E-16 2.08E-15 2.13E-15 9.64E-15 1.71E-15 8.43E-15
 1.27E-14 5.18E-15 2.63E-14 2.40E-14
   0.3125  0.0625  0.0625    1  4.91372E-14 kpt; spin; max resid(k); each band:
 3.09E-17 7.45E-19 5.96E-19 6.03E-19 2.05E-18 3.99E-16 8.22E-17 7.02E-17
 5.03E-17 9.27E-17 2.22E-16 1.19E-15 6.82E-15 5.87E-15 1.34E-14 3.85E-16
 1.99E-14 1.48E-14 4.91E-14 1.36E-14
   0.4375  0.0625  0.0625    1  5.30175E-14 kpt; spin; max resid(k); each band:
 5.81E-17 4.72E-19 6.40E-19 5.08E-19 2.31E-18 4.92E-16 7.86E-17 1.32E-17
 5.31E-17 8.82E-17 2.91E-16 5.09E-16 5.95E-15 5.61E-15 3.08E-15 1.68E-15
 5.30E-14 4.38E-14 2.93E-14 1.97E-14
  -0.4375  0.0625  0.0625    1  5.32939E-14 kpt; spin; max resid(k); each band:
 5.81E-17 5.20E-19 6.79E-19 5.35E-19 2.27E-18 4.91E-16 7.86E-17 1.44E-17
 5.49E-17 8.87E-17 2.90E-16 5.12E-16 5.94E-15 5.60E-15 3.13E-15 1.63E-15
 5.33E-14 4.40E-14 2.93E-14 1.97E-14
  -0.3125  0.0625  0.0625    1  4.93227E-14 kpt; spin; max resid(k); each band:
 3.09E-17 8.44E-19 6.39E-19 6.62E-19 2.01E-18 3.98E-16 8.22E-17 7.03E-17
 5.14E-17 9.29E-17 2.21E-16 1.20E-15 6.79E-15 9.15E-15 1.37E-14 4.31E-16
 3.29E-14 1.50E-14 4.93E-14 1.38E-14
  -0.1875  0.0625  0.0625    1  2.66923E-14 kpt; spin; max resid(k); each band:
 2.23E-17 5.42E-19 3.76E-19 4.97E-19 1.28E-18 2.34E-16 9.30E-17 1.35E-16
 8.04E-17 4.47E-17 1.07E-16 2.09E-15 2.03E-15 8.28E-15 1.81E-15 8.71E-15
 1.30E-14 5.30E-15 2.67E-14 2.45E-14
  -0.0625  0.0625  0.0625    1  8.48207E-15 kpt; spin; max resid(k); each band:
 2.52E-17 3.38E-19 4.94E-19 4.18E-19 9.82E-19 1.81E-16 4.76E-16 2.28E-16
 2.91E-17 3.24E-17 3.95E-17 1.39E-15 6.94E-15 1.50E-15 1.43E-15 5.14E-16
 1.81E-15 3.50E-15 8.48E-15 1.93E-15
   0.0625  0.1875  0.0625    1  1.46849E-14 kpt; spin; max resid(k); each band:
 2.37E-17 4.60E-19 3.51E-19 3.83E-19 1.26E-18 2.81E-16 2.98E-16 4.37E-16
 4.89E-17 6.82E-17 1.12E-16 9.77E-15 9.33E-15 3.30E-15 7.33E-15 5.47E-15
 2.18E-15 1.09E-14 1.19E-14 1.47E-14
   0.1875  0.1875  0.0625    1  3.09777E-14 kpt; spin; max resid(k); each band:
 2.48E-17 9.14E-19 1.23E-18 3.33E-19 2.02E-18 2.31E-16 3.04E-16 3.96E-16
 7.65E-17 7.23E-17 1.04E-16 6.89E-15 8.52E-15 6.46E-15 1.18E-15 1.32E-14
 1.09E-14 1.56E-14 2.88E-14 3.10E-14
   0.3125  0.1875  0.0625    1  8.47363E-14 kpt; spin; max resid(k); each band:
 4.12E-17 7.85E-19 1.35E-18 4.36E-19 2.63E-18 3.64E-16 4.91E-16 1.50E-16
 5.89E-17 1.53E-16 1.29E-16 2.38E-15 5.48E-15 8.99E-15 1.41E-14 9.41E-15
 1.06E-14 4.64E-14 4.24E-14 8.47E-14
   0.4375  0.1875  0.0625    1  9.24855E-14 kpt; spin; max resid(k); each band:
 6.46E-17 5.46E-19 1.44E-18 4.37E-19 3.95E-18 4.33E-16 4.65E-16 2.53E-17
 3.15E-17 2.22E-16 1.94E-16 9.20E-16 5.78E-15 1.25E-14 1.76E-14 1.61E-14
 4.37E-14 4.94E-14 2.26E-14 9.25E-14
  -0.4375  0.1875  0.0625    1  9.26062E-14 kpt; spin; max resid(k); each band:
 6.46E-17 5.99E-19 1.46E-18 4.69E-19 3.91E-18 4.33E-16 4.65E-16 2.61E-17
 3.15E-17 2.22E-16 1.94E-16 9.22E-16 5.78E-15 1.25E-14 1.76E-14 1.62E-14
 4.27E-14 4.94E-14 2.26E-14 9.26E-14
  -0.3125  0.1875  0.0625    1  8.51055E-14 kpt; spin; max resid(k); each band:
 4.12E-17 8.91E-19 1.39E-18 4.87E-19 2.60E-18 3.63E-16 4.91E-16 1.49E-16
 5.90E-17 1.53E-16 1.29E-16 2.38E-15 5.45E-15 8.97E-15 1.41E-14 9.55E-15
 1.02E-14 4.66E-14 4.49E-14 8.51E-14
  -0.1875  0.1875  0.0625    1  3.14564E-14 kpt; spin; max resid(k); each band:
 2.48E-17 9.61E-19 1.28E-18 3.61E-19 2.00E-18 2.31E-16 3.03E-16 3.96E-16
 7.68E-17 7.23E-17 1.03E-16 6.87E-15 8.51E-15 6.42E-15 1.14E-15 1.34E-14
 1.10E-14 1.58E-14 2.90E-14 3.15E-14
  -0.0625  0.1875  0.0625    1  1.48556E-14 kpt; spin; max resid(k); each band:
 2.37E-17 4.93E-19 3.60E-19 4.04E-19 1.23E-18 2.82E-16 2.97E-16 4.37E-16
 4.91E-17 6.84E-17 1.12E-16 9.76E-15 9.32E-15 3.29E-15 7.33E-15 5.48E-15
 2.28E-15 9.91E-15 1.20E-14 1.49E-14
   0.0625  0.3125  0.0625    1  1.78869E-14 kpt; spin; max resid(k); each band:
 2.69E-17 5.20E-19 3.12E-19 2.39E-19 1.38E-18 1.87E-16 2.82E-16 3.38E-16
 1.10E-16 6.88E-17 1.68E-16 9.26E-15 6.13E-15 2.35E-15 1.79E-14 1.53E-14
 7.33E-15 3.58E-15 1.48E-14 1.49E-14
   0.1875  0.3125  0.0625    1  4.09781E-14 kpt; spin; max resid(k); each band:
 2.53E-17 1.24E-18 4.34E-19 3.46E-19 2.00E-18 2.75E-16 2.58E-16 4.37E-16
 9.03E-17 1.02E-16 1.67E-16 7.08E-15 6.06E-15 2.81E-15 2.81E-15 2.48E-14
 4.20E-15 1.37E-14 3.15E-14 4.10E-14
   0.3125  0.3125  0.0625    1  9.04407E-14 kpt; spin; max resid(k); each band:
 3.97E-17 1.04E-18 1.35E-18 3.80E-19 3.22E-18 4.40E-16 1.84E-16 3.15E-16
 1.20E-16 1.40E-16 1.59E-16 4.59E-15 4.64E-15 6.55E-15 1.05E-14 2.19E-14
 8.67E-15 4.55E-14 3.51E-14 9.04E-14
   0.4375  0.3125  0.0625    1  9.11021E-14 kpt; spin; max resid(k); each band:
 5.80E-17 3.39E-19 1.88E-18 3.14E-19 5.30E-18 5.60E-16 4.38E-16 9.25E-17
 3.45E-17 1.89E-16 1.11E-16 1.47E-15 3.99E-15 7.04E-15 1.79E-14 1.57E-14
 1.96E-14 4.60E-14 3.84E-14 9.11E-14
  -0.4375  0.3125  0.0625    1  9.12383E-14 kpt; spin; max resid(k); each band:
 5.80E-17 3.93E-19 1.89E-18 3.44E-19 5.27E-18 5.60E-16 4.37E-16 9.49E-17
 3.44E-17 1.89E-16 1.12E-16 1.47E-15 3.95E-15 6.97E-15 1.79E-14 1.58E-14
 1.96E-14 4.61E-14 3.84E-14 9.12E-14
  -0.3125  0.3125  0.0625    1  9.07360E-14 kpt; spin; max resid(k); each band:
 3.97E-17 1.09E-18 1.41E-18 4.29E-19 3.18E-18 4.39E-16 1.85E-16 3.16E-16
 1.19E-16 1.40E-16 1.59E-16 4.55E-15 4.67E-15 6.48E-15 1.05E-14 2.20E-14
 8.70E-15 4.56E-14 3.52E-14 9.07E-14
  -0.1875  0.3125  0.0625    1  4.13384E-14 kpt; spin; max resid(k); each band:
 2.53E-17 1.25E-18 4.78E-19 3.81E-19 1.98E-18 2.75E-16 2.58E-16 4.37E-16
 9.05E-17 1.02E-16 1.67E-16 7.06E-15 6.05E-15 2.79E-15 2.78E-15 2.49E-14
 4.30E-15 1.38E-14 3.16E-14 4.13E-14
  -0.0625  0.3125  0.0625    1  1.78535E-14 kpt; spin; max resid(k); each band:
 2.67E-17 5.41E-19 3.34E-19 2.45E-19 1.37E-18 1.87E-16 2.82E-16 3.38E-16
 1.10E-16 6.90E-17 1.68E-16 9.25E-15 6.13E-15 2.37E-15 1.79E-14 1.52E-14
 7.43E-15 3.68E-15 1.49E-14 1.51E-14
   0.0625  0.4375  0.0625    1  1.67874E-14 kpt; spin; max resid(k); each band:
 2.98E-17 4.23E-19 1.67E-19 2.67E-19 8.58E-19 1.69E-16 2.47E-16 1.17E-16
 1.22E-16 1.05E-16 1.74E-16 5.69E-15 2.80E-15 2.09E-15 1.68E-14 1.61E-14
 1.58E-14 1.52E-14 6.78E-15 7.35E-15
   0.1875  0.4375  0.0625    1  4.07236E-14 kpt; spin; max resid(k); each band:
 3.11E-17 6.43E-19 4.25E-19 3.29E-19 1.65E-18 2.36E-16 2.56E-16 9.29E-17
 9.42E-17 9.30E-17 1.64E-16 4.85E-15 8.53E-15 1.09E-15 1.62E-15 2.74E-14
 4.87E-15 1.26E-14 2.66E-14 4.07E-14
   0.3125  0.4375  0.0625    1  7.36757E-14 kpt; spin; max resid(k); each band:
 3.24E-17 1.25E-18 7.87E-19 4.00E-19 3.43E-18 3.59E-16 2.29E-16 2.29E-16
 1.82E-16 9.89E-17 8.42E-17 2.18E-15 4.22E-15 1.48E-15 2.45E-15 2.54E-14
 3.15E-14 1.98E-14 2.67E-14 7.37E-14
   0.4375  0.4375  0.0625    1  6.82875E-14 kpt; spin; max resid(k); each band:
 3.38E-17 1.03E-18 1.15E-18 2.56E-19 5.54E-18 5.49E-16 4.14E-17 1.99E-16
 8.21E-17 9.92E-17 7.59E-17 2.34E-15 3.28E-15 1.33E-15 1.59E-14 1.84E-14
 1.76E-14 4.13E-14 4.31E-14 6.83E-14
  -0.4375  0.4375  0.0625    1  5.76398E-14 kpt; spin; max resid(k); each band:
 3.38E-17 1.06E-18 1.17E-18 2.89E-19 5.52E-18 5.49E-16 4.29E-17 2.01E-16
 8.21E-17 9.92E-17 7.56E-17 2.34E-15 3.24E-15 1.33E-15 1.59E-14 1.85E-14
 1.76E-14 4.14E-14 4.32E-14 5.76E-14
  -0.3125  0.4375  0.0625    1  7.38984E-14 kpt; spin; max resid(k); each band:
 3.24E-17 1.26E-18 8.78E-19 4.58E-19 3.40E-18 3.59E-16 2.30E-16 2.30E-16
 1.82E-16 9.97E-17 8.42E-17 1.96E-15 4.13E-15 1.50E-15 2.51E-15 2.54E-14
 3.15E-14 1.99E-14 2.68E-14 7.39E-14
  -0.1875  0.4375  0.0625    1  4.09988E-14 kpt; spin; max resid(k); each band:
 3.11E-17 6.49E-19 4.82E-19 3.66E-19 1.63E-18 2.36E-16 2.56E-16 9.29E-17
 9.43E-17 9.33E-17 1.64E-16 4.83E-15 8.45E-15 1.07E-15 1.63E-15 2.74E-14
 4.90E-15 1.27E-14 2.87E-14 4.10E-14
  -0.0625  0.4375  0.0625    1  1.67199E-14 kpt; spin; max resid(k); each band:
 2.98E-17 4.45E-19 1.71E-19 2.88E-19 8.48E-19 1.70E-16 2.47E-16 1.17E-16
 1.22E-16 1.05E-16 1.75E-16 5.66E-15 2.79E-15 2.12E-15 1.67E-14 1.61E-14
 1.58E-14 1.53E-14 6.96E-15 7.54E-15
   0.0625  0.1875  0.1875    1  2.22396E-14 kpt; spin; max resid(k); each band:
 2.40E-17 3.66E-19 7.34E-19 2.41E-19 2.48E-18 3.64E-17 6.09E-17 1.99E-16
 5.63E-17 1.05E-16 2.18E-16 4.63E-15 9.36E-15 8.15E-15 2.22E-14 2.54E-15
 9.34E-15 4.11E-15 2.33E-15 7.46E-15
   0.1875  0.1875  0.1875    1  4.09672E-14 kpt; spin; max resid(k); each band:
 2.47E-17 5.54E-19 9.09E-19 1.11E-18 2.95E-18 1.04E-16 3.94E-16 2.14E-16
 6.37E-17 1.13E-16 4.20E-17 6.82E-15 1.07E-14 3.35E-15 1.59E-14 3.81E-15
 1.29E-14 3.42E-14 1.47E-14 4.10E-14
   0.3125  0.1875  0.1875    1  1.12996E-13 kpt; spin; max resid(k); each band:
 4.52E-17 8.76E-19 9.67E-19 8.62E-19 3.35E-18 2.35E-16 6.13E-17 9.35E-17
 3.90E-17 1.90E-16 1.63E-16 3.68E-15 1.08E-15 6.80E-15 9.54E-15 7.72E-15
 1.82E-14 1.46E-14 8.29E-14 1.13E-13
   0.4375  0.1875  0.1875    1  1.14158E-13 kpt; spin; max resid(k); each band:
 6.45E-17 5.93E-19 1.18E-18 6.98E-19 4.92E-18 3.14E-16 7.24E-17 1.80E-17
 2.57E-17 3.52E-16 2.34E-16 1.36E-15 2.75E-15 9.07E-15 2.12E-15 1.24E-14
 2.10E-14 1.08E-14 1.11E-13 1.14E-13
  -0.4375  0.1875  0.1875    1  1.14236E-13 kpt; spin; max resid(k); each band:
 6.45E-17 6.49E-19 1.21E-18 7.06E-19 4.88E-18 3.14E-16 7.24E-17 1.93E-17
 2.56E-17 3.51E-16 2.36E-16 1.36E-15 2.73E-15 9.07E-15 2.13E-15 7.08E-15
 2.10E-14 1.08E-14 1.11E-13 1.14E-13
  -0.3125  0.1875  0.1875    1  1.02942E-13 kpt; spin; max resid(k); each band:
 4.52E-17 9.53E-19 1.01E-18 8.81E-19 3.32E-18 2.34E-16 6.12E-17 9.49E-17
 3.86E-17 1.90E-16 1.63E-16 3.66E-15 1.05E-15 6.81E-15 9.63E-15 7.65E-15
 1.83E-14 1.46E-14 8.33E-14 1.03E-13
  -0.1875  0.1875  0.1875    1  4.13801E-14 kpt; spin; max resid(k); each band:
 2.47E-17 5.73E-19 9.29E-19 1.17E-18 2.93E-18 1.03E-16 3.93E-16 2.14E-16
 6.36E-17 1.13E-16 4.15E-17 6.79E-15 7.35E-15 3.35E-15 1.59E-14 3.72E-15
 1.29E-14 3.48E-14 1.48E-14 4.14E-14
  -0.0625  0.1875  0.1875    1  2.22203E-14 kpt; spin; max resid(k); each band:
 2.40E-17 3.98E-19 7.39E-19 2.51E-19 2.45E-18 3.62E-17 6.09E-17 1.99E-16
 5.63E-17 1.06E-16 2.18E-16 4.62E-15 9.37E-15 8.17E-15 2.22E-14 2.43E-15
 9.37E-15 4.47E-15 2.41E-15 1.20E-14
   0.0625  0.3125  0.1875    1  1.36203E-14 kpt; spin; max resid(k); each band:
 2.47E-17 4.46E-19 4.80E-19 2.15E-19 3.18E-18 1.71E-16 2.72E-16 3.99E-16
 8.78E-17 1.31E-16 2.35E-16 8.68E-15 1.27E-14 1.33E-14 1.36E-14 9.42E-15
 3.84E-15 3.27E-15 4.40E-15 7.42E-15
   0.1875  0.3125  0.1875    1  3.57546E-14 kpt; spin; max resid(k); each band:
 2.42E-17 1.04E-18 3.73E-19 9.93E-19 3.30E-18 1.29E-16 2.58E-16 3.25E-16
 1.11E-16 8.54E-17 4.10E-17 7.10E-15 9.32E-15 4.03E-15 1.29E-14 1.80E-14
 5.35E-15 3.58E-14 2.46E-14 1.88E-14
   0.3125  0.3125  0.1875    1  8.31324E-14 kpt; spin; max resid(k); each band:
 3.99E-17 7.99E-19 1.52E-18 8.54E-19 3.82E-18 2.35E-16 1.89E-16 8.99E-17
 1.15E-16 1.68E-16 2.24E-16 4.58E-15 3.29E-15 5.35E-15 1.04E-14 1.52E-14
 1.36E-14 4.77E-14 6.78E-14 8.31E-14
   0.4375  0.3125  0.1875    1  1.37391E-13 kpt; spin; max resid(k); each band:
 5.57E-17 4.69E-19 1.21E-18 9.46E-19 4.70E-18 3.32E-16 3.40E-16 8.26E-17
 2.54E-17 2.48E-16 1.21E-16 1.77E-15 5.00E-15 7.37E-15 1.32E-14 7.67E-15
 2.16E-14 3.43E-14 1.37E-13 1.04E-13
  -0.4375  0.3125  0.1875    1  1.37571E-13 kpt; spin; max resid(k); each band:
 5.57E-17 5.23E-19 1.22E-18 9.62E-19 4.68E-18 3.31E-16 3.40E-16 6.17E-17
 2.58E-17 2.48E-16 1.23E-16 1.78E-15 5.01E-15 7.22E-15 1.32E-14 7.67E-15
 2.16E-14 3.43E-14 1.38E-13 1.05E-13
  -0.3125  0.3125  0.1875    1  8.33729E-14 kpt; spin; max resid(k); each band:
 3.99E-17 8.35E-19 1.58E-18 8.83E-19 3.78E-18 2.33E-16 1.90E-16 1.25E-16
 1.15E-16 1.68E-16 2.24E-16 4.57E-15 3.30E-15 5.27E-15 1.04E-14 1.52E-14
 1.36E-14 4.78E-14 6.80E-14 8.34E-14
  -0.1875  0.3125  0.1875    1  3.60507E-14 kpt; spin; max resid(k); each band:
 2.42E-17 1.05E-18 3.98E-19 1.04E-18 3.28E-18 1.29E-16 2.58E-16 3.25E-16
 1.11E-16 8.54E-17 4.08E-17 7.08E-15 9.32E-15 4.06E-15 1.29E-14 1.79E-14
 5.43E-15 3.61E-14 2.48E-14 1.90E-14
  -0.0625  0.3125  0.1875    1  1.35926E-14 kpt; spin; max resid(k); each band:
 2.42E-17 4.65E-19 4.74E-19 2.25E-19 3.16E-18 1.73E-16 2.72E-16 3.98E-16
 8.78E-17 1.31E-16 2.35E-16 8.67E-15 1.27E-14 1.33E-14 1.36E-14 9.32E-15
 4.80E-15 3.21E-15 4.51E-15 7.45E-15
   0.0625  0.4375  0.1875    1  2.00350E-14 kpt; spin; max resid(k); each band:
 2.86E-17 3.55E-19 4.60E-19 1.56E-19 2.87E-18 1.11E-16 2.07E-16 7.96E-17
 1.14E-16 1.71E-16 1.81E-16 4.45E-15 2.00E-14 5.73E-15 5.76E-15 1.59E-14
 6.16E-15 3.93E-15 6.40E-15 8.30E-15
   0.1875  0.4375  0.1875    1  2.93453E-14 kpt; spin; max resid(k); each band:
 2.91E-17 5.34E-19 2.54E-19 9.21E-19 2.71E-18 1.53E-16 2.27E-16 6.54E-17
 1.12E-16 1.26E-16 6.17E-17 1.74E-15 5.72E-15 6.40E-15 3.35E-15 2.06E-14
 5.82E-15 2.93E-14 2.15E-14 2.12E-14
 outwf : prtvol=0 or 1, do not print more k-points.


 Thirteen components of 2nd-order total energy (hartree) are
 1,2,3: 0th-order hamiltonian combined with 1st-order wavefunctions
     kin0=   8.67844231E+02 eigvalue=   3.86228725E+01  local=  -4.87251533E+02
 4,5,6: 1st-order hamiltonian combined with 1st and 0th-order wfs
 loc psp =   1.14969804E+02  Hartree=   3.60035263E+02     xc=  -7.09642596E+01
 note that "loc psp" includes a xc core correction that could be resolved
 7,8,9: eventually, occupation + non-local contributions
    edocc=   0.00000000E+00     enl0=   3.56639573E+02   enl1=  -2.24482209E+03
 1-9 gives the relaxation energy (to be shifted if some occ is /=2.0)
   erelax=  -1.06492614E+03
 10,11,12 Non-relaxation  contributions : frozen-wavefunctions and Ewald
 fr.local=  -4.05686417E+02 fr.nonlo=   1.12361517E+03  Ewald=   3.55247896E+02
 13,14 Frozen wf xc core corrections (1) and (2)
 frxc 1  =   0.00000000E+00  frxc 2 =   0.00000000E+00
 Resulting in :
 2DEtotal=    0.8250504507E+01 Ha. Also 2DEtotal=    0.224507645166E+03 eV
    (2DErelax=   -1.0649261437E+03 Ha. 2DEnonrelax=    1.0731766482E+03 Ha)
    (  non-var. 2DEtotal :    8.2505030463E+00 Ha)


--------------------------------------------------------------------------------
 Perturbation wavevector (in red.coord.)   0.500000  0.000000  0.000000
 Perturbation : displacement of atom   1   along direction   2
 Found     2 symmetries that leave the perturbation invariant.
 symkpt : the number of k-points, thanks to the symmetries,
 is reduced to   256 .

--------------------------------------------------------------------------------

-inwffil : will read wavefunctions from disk file perovskite-Gamma_o_DS1_WFK
- newkpt: read input wf with ikpt,npw=   1    4996, make ikpt,npw=   1    4996
- newkpt: read input wf with ikpt,npw=   2    4976, make ikpt,npw=   2    4976
- newkpt: read input wf with ikpt,npw=   3    4998, make ikpt,npw=   3    4998
- newkpt: read input wf with ikpt,npw=   4    4986, make ikpt,npw=   4    4986
- newkpt: read input wf with ikpt,npw=   4    4986, make ikpt,npw=   5    4986
- newkpt: read input wf with ikpt,npw=   3    4998, make ikpt,npw=   6    4998
- newkpt: read input wf with ikpt,npw=   2    4976, make ikpt,npw=   7    4976
- newkpt: read input wf with ikpt,npw=   1    4996, make ikpt,npw=   8    4996
- newkpt: read input wf with ikpt,npw=   2    4976, make ikpt,npw=   9    4976
- newkpt: read input wf with ikpt,npw=   5    4985, make ikpt,npw=  10    4985
- newkpt: read input wf with ikpt,npw=   6    5000, make ikpt,npw=  11    5000
- newkpt: read input wf with ikpt,npw=   7    4987, make ikpt,npw=  12    4987
- newkpt: read input wf with ikpt,npw=   7    4987, make ikpt,npw=  13    4987
- newkpt: read input wf with ikpt,npw=   6    5000, make ikpt,npw=  14    5000
- newkpt: read input wf with ikpt,npw=   5    4985, make ikpt,npw=  15    4985
- newkpt: read input wf with ikpt,npw=   2    4976, make ikpt,npw=  16    4976
- newkpt: read input wf with ikpt,npw=   3    4998, make ikpt,npw=  17    4998
- newkpt: read input wf with ikpt,npw=   6    5000, make ikpt,npw=  18    5000
- newkpt: read input wf with ikpt,npw=   8    4973, make ikpt,npw=  19    4973
- newkpt: read input wf with ikpt,npw=   9    4983, make ikpt,npw=  20    4983
- newkpt: read input wf with ikpt,npw=   9    4983, make ikpt,npw=  21    4983
- newkpt: read input wf with ikpt,npw=   8    4973, make ikpt,npw=  22    4973
- newkpt: read input wf with ikpt,npw=   6    5000, make ikpt,npw=  23    5000
- newkpt: read input wf with ikpt,npw=   3    4998, make ikpt,npw=  24    4998
- newkpt: read input wf with ikpt,npw=   4    4986, make ikpt,npw=  25    4986
- newkpt: read input wf with ikpt,npw=   7    4987, make ikpt,npw=  26    4987
- newkpt: read input wf with ikpt,npw=   9    4983, make ikpt,npw=  27    4983
- newkpt: read input wf with ikpt,npw=  10    4989, make ikpt,npw=  28    4989
- newkpt: read input wf with ikpt,npw=  10    4989, make ikpt,npw=  29    4989
- newkpt: read input wf with ikpt,npw=   9    4983, make ikpt,npw=  30    4983
- newkpt: read input wf with ikpt,npw=   7    4987, make ikpt,npw=  31    4987
- newkpt: read input wf with ikpt,npw=   4    4986, make ikpt,npw=  32    4986
- newkpt: read input wf with ikpt,npw=   4    4986, make ikpt,npw=  33    4986
- newkpt: read input wf with ikpt,npw=   7    4987, make ikpt,npw=  34    4987
- newkpt: read input wf with ikpt,npw=   9    4983, make ikpt,npw=  35    4983
- newkpt: read input wf with ikpt,npw=  10    4989, make ikpt,npw=  36    4989
- newkpt: read input wf with ikpt,npw=  10    4989, make ikpt,npw=  37    4989
- newkpt: read input wf with ikpt,npw=   9    4983, make ikpt,npw=  38    4983
- newkpt: read input wf with ikpt,npw=   7    4987, make ikpt,npw=  39    4987
- newkpt: read input wf with ikpt,npw=   4    4986, make ikpt,npw=  40    4986
- newkpt: read input wf with ikpt,npw=   3    4998, make ikpt,npw=  41    4998
- newkpt: read input wf with ikpt,npw=   6    5000, make ikpt,npw=  42    5000
- newkpt: read input wf with ikpt,npw=   8    4973, make ikpt,npw=  43    4973
- newkpt: read input wf with ikpt,npw=   9    4983, make ikpt,npw=  44    4983
- newkpt: read input wf with ikpt,npw=   9    4983, make ikpt,npw=  45    4983
- newkpt: read input wf with ikpt,npw=   8    4973, make ikpt,npw=  46    4973
- newkpt: read input wf with ikpt,npw=   6    5000, make ikpt,npw=  47    5000
- newkpt: read input wf with ikpt,npw=   3    4998, make ikpt,npw=  48    4998
- newkpt: read input wf with ikpt,npw=   2    4976, make ikpt,npw=  49    4976
- newkpt: read input wf with ikpt,npw=   5    4985, make ikpt,npw=  50    4985
- newkpt : prtvol=0 or 1, do not print more k-points.
 
--------------------------------------------------------------------------------

-inwffil : will read wavefunctions from disk file perovskite-Gamma_o_DS1_WFK
- newkpt: read input wf with ikpt,npw=   4    4986, make ikpt,npw=   1    4986
- newkpt: read input wf with ikpt,npw=   3    4998, make ikpt,npw=   2    4998
- newkpt: read input wf with ikpt,npw=   2    4976, make ikpt,npw=   3    4976
- newkpt: read input wf with ikpt,npw=   1    4996, make ikpt,npw=   4    4996
- newkpt: read input wf with ikpt,npw=   1    4996, make ikpt,npw=   5    4996
- newkpt: read input wf with ikpt,npw=   2    4976, make ikpt,npw=   6    4976
- newkpt: read input wf with ikpt,npw=   3    4998, make ikpt,npw=   7    4998
- newkpt: read input wf with ikpt,npw=   4    4986, make ikpt,npw=   8    4986
- newkpt: read input wf with ikpt,npw=   7    4987, make ikpt,npw=   9    4987
- newkpt: read input wf with ikpt,npw=   6    5000, make ikpt,npw=  10    5000
- newkpt: read input wf with ikpt,npw=   5    4985, make ikpt,npw=  11    4985
- newkpt: read input wf with ikpt,npw=   2    4976, make ikpt,npw=  12    4976
- newkpt: read input wf with ikpt,npw=   2    4976, make ikpt,npw=  13    4976
- newkpt: read input wf with ikpt,npw=   5    4985, make ikpt,npw=  14    4985
- newkpt: read input wf with ikpt,npw=   6    5000, make ikpt,npw=  15    5000
- newkpt: read input wf with ikpt,npw=   7    4987, make ikpt,npw=  16    4987
- newkpt: read input wf with ikpt,npw=   9    4983, make ikpt,npw=  17    4983
- newkpt: read input wf with ikpt,npw=   8    4973, make ikpt,npw=  18    4973
- newkpt: read input wf with ikpt,npw=   6    5000, make ikpt,npw=  19    5000
- newkpt: read input wf with ikpt,npw=   3    4998, make ikpt,npw=  20    4998
- newkpt: read input wf with ikpt,npw=   3    4998, make ikpt,npw=  21    4998
- newkpt: read input wf with ikpt,npw=   6    5000, make ikpt,npw=  22    5000
- newkpt: read input wf with ikpt,npw=   8    4973, make ikpt,npw=  23    4973
- newkpt: read input wf with ikpt,npw=   9    4983, make ikpt,npw=  24    4983
- newkpt: read input wf with ikpt,npw=  10    4989, make ikpt,npw=  25    4989
- newkpt: read input wf with ikpt,npw=   9    4983, make ikpt,npw=  26    4983
- newkpt: read input wf with ikpt,npw=   7    4987, make ikpt,npw=  27    4987
- newkpt: read input wf with ikpt,npw=   4    4986, make ikpt,npw=  28    4986
- newkpt: read input wf with ikpt,npw=   4    4986, make ikpt,npw=  29    4986
- newkpt: read input wf with ikpt,npw=   7    4987, make ikpt,npw=  30    4987
- newkpt: read input wf with ikpt,npw=   9    4983, make ikpt,npw=  31    4983
- newkpt: read input wf with ikpt,npw=  10    4989, make ikpt,npw=  32    4989
- newkpt: read input wf with ikpt,npw=  10    4989, make ikpt,npw=  33    4989
- newkpt: read input wf with ikpt,npw=   9    4983, make ikpt,npw=  34    4983
- newkpt: read input wf with ikpt,npw=   7    4987, make ikpt,npw=  35    4987
- newkpt: read input wf with ikpt,npw=   4    4986, make ikpt,npw=  36    4986
- newkpt: read input wf with ikpt,npw=   4    4986, make ikpt,npw=  37    4986
- newkpt: read input wf with ikpt,npw=   7    4987, make ikpt,npw=  38    4987
- newkpt: read input wf with ikpt,npw=   9    4983, make ikpt,npw=  39    4983
- newkpt: read input wf with ikpt,npw=  10    4989, make ikpt,npw=  40    4989
- newkpt: read input wf with ikpt,npw=   9    4983, make ikpt,npw=  41    4983
- newkpt: read input wf with ikpt,npw=   8    4973, make ikpt,npw=  42    4973
- newkpt: read input wf with ikpt,npw=   6    5000, make ikpt,npw=  43    5000
- newkpt: read input wf with ikpt,npw=   3    4998, make ikpt,npw=  44    4998
- newkpt: read input wf with ikpt,npw=   3    4998, make ikpt,npw=  45    4998
- newkpt: read input wf with ikpt,npw=   6    5000, make ikpt,npw=  46    5000
- newkpt: read input wf with ikpt,npw=   8    4973, make ikpt,npw=  47    4973
- newkpt: read input wf with ikpt,npw=   9    4983, make ikpt,npw=  48    4983
- newkpt: read input wf with ikpt,npw=   7    4987, make ikpt,npw=  49    4987
- newkpt: read input wf with ikpt,npw=   6    5000, make ikpt,npw=  50    5000
- newkpt : prtvol=0 or 1, do not print more k-points.
 
 Initialisation of the first-order wave-functions :
  ireadwf=   0
P newkpt: treating     20 bands with npw=    4986 for ikpt=   1
P newkpt: treating     20 bands with npw=    4998 for ikpt=   2
P newkpt: treating     20 bands with npw=    4976 for ikpt=   3
P newkpt: treating     20 bands with npw=    4996 for ikpt=   4
P newkpt: treating     20 bands with npw=    4996 for ikpt=   5
P newkpt: treating     20 bands with npw=    4976 for ikpt=   6
P newkpt: treating     20 bands with npw=    4998 for ikpt=   7
P newkpt: treating     20 bands with npw=    4986 for ikpt=   8
P newkpt: treating     20 bands with npw=    4987 for ikpt=   9
P newkpt: treating     20 bands with npw=    5000 for ikpt=  10
P newkpt: treating     20 bands with npw=    4985 for ikpt=  11
P newkpt: treating     20 bands with npw=    4976 for ikpt=  12
P newkpt: treating     20 bands with npw=    4976 for ikpt=  13
P newkpt: treating     20 bands with npw=    4985 for ikpt=  14
P newkpt: treating     20 bands with npw=    5000 for ikpt=  15
P newkpt: treating     20 bands with npw=    4987 for ikpt=  16
P newkpt: treating     20 bands with npw=    4983 for ikpt=  17
P newkpt: treating     20 bands with npw=    4973 for ikpt=  18
P newkpt: treating     20 bands with npw=    5000 for ikpt=  19
P newkpt: treating     20 bands with npw=    4998 for ikpt=  20
P newkpt: treating     20 bands with npw=    4998 for ikpt=  21
P newkpt: treating     20 bands with npw=    5000 for ikpt=  22
P newkpt: treating     20 bands with npw=    4973 for ikpt=  23
P newkpt: treating     20 bands with npw=    4983 for ikpt=  24
P newkpt: treating     20 bands with npw=    4989 for ikpt=  25
P newkpt: treating     20 bands with npw=    4983 for ikpt=  26
P newkpt: treating     20 bands with npw=    4987 for ikpt=  27
P newkpt: treating     20 bands with npw=    4986 for ikpt=  28
P newkpt: treating     20 bands with npw=    4986 for ikpt=  29
P newkpt: treating     20 bands with npw=    4987 for ikpt=  30
P newkpt: treating     20 bands with npw=    4983 for ikpt=  31
P newkpt: treating     20 bands with npw=    4989 for ikpt=  32
P newkpt: treating     20 bands with npw=    4989 for ikpt=  33
P newkpt: treating     20 bands with npw=    4983 for ikpt=  34
P newkpt: treating     20 bands with npw=    4987 for ikpt=  35
P newkpt: treating     20 bands with npw=    4986 for ikpt=  36
P newkpt: treating     20 bands with npw=    4986 for ikpt=  37
P newkpt: treating     20 bands with npw=    4987 for ikpt=  38
P newkpt: treating     20 bands with npw=    4983 for ikpt=  39
P newkpt: treating     20 bands with npw=    4989 for ikpt=  40
P newkpt: treating     20 bands with npw=    4983 for ikpt=  41
P newkpt: treating     20 bands with npw=    4973 for ikpt=  42
P newkpt: treating     20 bands with npw=    5000 for ikpt=  43
P newkpt: treating     20 bands with npw=    4998 for ikpt=  44
P newkpt: treating     20 bands with npw=    4998 for ikpt=  45
P newkpt: treating     20 bands with npw=    5000 for ikpt=  46
P newkpt: treating     20 bands with npw=    4973 for ikpt=  47
P newkpt: treating     20 bands with npw=    4983 for ikpt=  48
P newkpt: treating     20 bands with npw=    4987 for ikpt=  49
P newkpt: treating     20 bands with npw=    5000 for ikpt=  50
  newkpt: prtvol=0 or 1, do not print more k-points.
 

     iter   2DEtotal(Ha)        deltaE(Ha) residm    vres2
-ETOT  1   201.04862067910     -6.769E+02 5.353E+00 9.257E+05
 ETOT  2   29.058491195696     -1.720E+02 4.629E-01 1.297E+05
 ETOT  3   5.1248184336532     -2.393E+01 1.745E-01 5.059E+03
 ETOT  4   4.2417082651914     -8.831E-01 3.926E-03 1.764E+03
 ETOT  5   3.9356936346364     -3.060E-01 2.002E-03 3.412E+00
 ETOT  6   3.9304300723068     -5.264E-03 7.614E-04 2.749E+00
 ETOT  7   3.9293037549651     -1.126E-03 1.798E-04 3.046E+00
 ETOT  8   3.9289218089407     -3.819E-04 1.291E-04 3.553E+00
 ETOT  9   3.9289181888337     -3.620E-06 3.590E-05 4.005E+00
 ETOT 10   3.9282227857757     -6.954E-04 3.318E-05 1.932E+00
 ETOT 11   3.9279411816278     -2.816E-04 9.691E-06 8.943E-01
 ETOT 12   3.9278642166698     -7.696E-05 9.504E-06 3.563E-01
 ETOT 13   3.9278205766266     -4.364E-05 2.047E-06 1.207E-02
 ETOT 14   3.9278135924994     -6.984E-06 2.727E-06 1.950E-03
 ETOT 15   3.9278121285697     -1.464E-06 4.618E-07 6.839E-04
 ETOT 16   3.9278116832006     -4.454E-07 5.778E-07 1.829E-04
 ETOT 17   3.9278115257262     -1.575E-07 1.043E-07 1.492E-05
 ETOT 18   3.9278114682015     -5.752E-08 1.260E-07 1.855E-05
 ETOT 19   3.9278114416488     -2.655E-08 2.354E-08 3.019E-06
 ETOT 20   3.9278114304429     -1.121E-08 2.944E-08 7.337E-06
 ETOT 21   3.9278114267267     -3.716E-09 5.309E-09 1.359E-05
 ETOT 22   3.9278114244155     -2.311E-09 6.765E-09 1.537E-05
 ETOT 23   3.9278114219314     -2.484E-09 1.514E-09 7.759E-06
 ETOT 24   3.9278114206065     -1.325E-09 3.209E-10 3.453E-07
 ETOT 25   3.9278114204753     -1.312E-10 7.093E-11 8.121E-08
 ETOT 26   3.9278114204262     -4.911E-11 1.604E-11 1.087E-08
 ETOT 27   3.9278114204326      6.366E-12 3.890E-12 4.686E-09

 At SCF step   27       vres2   =  4.69E-09 < tolvrs=  1.00E-08 =>converged.
================================================================================

 ----iterations are completed or convergence reached----

 Mean square residual over all n,k,spin=   1.9496E-14; max=  3.8899E-12
   0.0625  0.0625  0.0625    1  2.25250E-12 kpt; spin; max resid(k); each band:
 5.20E-19 2.78E-20 9.87E-21 3.39E-20 2.79E-19 2.02E-17 7.58E-18 3.61E-17
 9.00E-18 8.46E-18 1.18E-17 1.14E-16 2.05E-17 1.65E-16 1.50E-15 6.39E-16
 1.56E-15 2.84E-13 2.25E-12 1.89E-12
   0.1875  0.0625  0.0625    1  3.65164E-12 kpt; spin; max resid(k); each band:
 5.57E-19 4.21E-19 1.28E-20 1.30E-20 4.18E-19 2.13E-17 5.92E-20 4.76E-17
 1.48E-17 3.92E-17 2.89E-17 3.67E-16 5.88E-17 1.00E-16 1.74E-16 7.68E-16
 2.25E-16 2.00E-16 1.97E-12 3.65E-12
   0.3125  0.0625  0.0625    1  3.70132E-12 kpt; spin; max resid(k); each band:
 6.01E-19 4.40E-19 1.03E-20 9.64E-21 1.06E-18 1.83E-17 4.43E-20 3.53E-17
 5.92E-17 2.87E-17 8.06E-17 1.71E-17 8.47E-17 2.19E-16 3.10E-16 1.88E-16
 2.41E-15 6.47E-15 3.99E-13 3.70E-12
   0.4375  0.0625  0.0625    1  9.64778E-15 kpt; spin; max resid(k); each band:
 3.63E-19 1.15E-19 7.92E-21 7.88E-21 1.73E-18 1.76E-17 1.12E-19 2.06E-17
 6.09E-17 4.80E-17 4.68E-17 4.71E-17 1.45E-16 1.15E-16 5.44E-16 3.17E-16
 9.65E-15 3.07E-15 9.59E-15 6.27E-15
  -0.4375  0.0625  0.0625    1  9.64778E-15 kpt; spin; max resid(k); each band:
 3.63E-19 1.15E-19 7.92E-21 7.88E-21 1.73E-18 1.76E-17 1.12E-19 2.06E-17
 6.09E-17 4.81E-17 4.68E-17 4.71E-17 1.45E-16 1.15E-16 5.44E-16 3.17E-16
 9.65E-15 3.07E-15 9.59E-15 6.27E-15
  -0.3125  0.0625  0.0625    1  3.70132E-12 kpt; spin; max resid(k); each band:
 6.01E-19 4.40E-19 1.03E-20 9.64E-21 1.06E-18 1.83E-17 4.43E-20 3.53E-17
 5.92E-17 2.87E-17 8.06E-17 1.71E-17 8.47E-17 2.19E-16 3.10E-16 1.88E-16
 2.41E-15 6.47E-15 3.99E-13 3.70E-12
  -0.1875  0.0625  0.0625    1  3.65164E-12 kpt; spin; max resid(k); each band:
 5.57E-19 4.21E-19 1.28E-20 1.30E-20 4.18E-19 2.13E-17 5.92E-20 4.76E-17
 1.48E-17 3.92E-17 2.89E-17 3.67E-16 5.88E-17 1.00E-16 1.74E-16 7.68E-16
 2.25E-16 2.00E-16 1.97E-12 3.65E-12
  -0.0625  0.0625  0.0625    1  2.25250E-12 kpt; spin; max resid(k); each band:
 5.20E-19 2.78E-20 9.87E-21 3.39E-20 2.79E-19 2.02E-17 7.58E-18 3.61E-17
 9.00E-18 8.46E-18 1.18E-17 1.14E-16 2.05E-17 1.65E-16 1.50E-15 6.39E-16
 1.56E-15 2.84E-13 2.25E-12 1.89E-12
   0.0625  0.1875  0.0625    1  2.84273E-14 kpt; spin; max resid(k); each band:
 8.18E-19 2.58E-20 3.20E-20 2.50E-20 4.53E-19 3.19E-17 1.37E-17 5.63E-18
 7.28E-18 6.99E-18 6.34E-18 7.63E-17 8.10E-17 9.26E-17 3.89E-16 4.62E-16
 2.00E-16 3.78E-16 2.84E-14 2.34E-14
   0.1875  0.1875  0.0625    1  6.62599E-15 kpt; spin; max resid(k); each band:
 8.57E-19 1.52E-19 1.08E-19 1.30E-21 1.08E-18 3.77E-17 1.80E-17 3.80E-18
 4.10E-18 3.31E-17 7.57E-18 1.23E-16 1.02E-16 4.65E-17 3.82E-16 2.55E-16
 4.84E-16 2.59E-16 1.95E-15 6.63E-15
   0.3125  0.1875  0.0625    1  1.16769E-13 kpt; spin; max resid(k); each band:
 8.96E-19 2.67E-19 2.15E-20 9.61E-22 7.60E-19 2.16E-17 1.32E-17 2.11E-17
 6.95E-18 1.99E-17 2.19E-17 1.58E-16 2.10E-16 8.02E-17 2.64E-16 7.78E-16
 5.66E-16 1.50E-15 5.22E-16 1.17E-13
   0.4375  0.1875  0.0625    1  4.20210E-13 kpt; spin; max resid(k); each band:
 6.39E-19 9.87E-20 2.40E-20 7.72E-22 8.74E-19 2.05E-17 1.62E-18 2.71E-17
 2.37E-17 3.61E-17 4.61E-17 1.24E-16 2.39E-16 1.36E-16 1.06E-16 9.34E-16
 2.38E-16 7.44E-16 3.47E-15 4.20E-13
  -0.4375  0.1875  0.0625    1  4.20210E-13 kpt; spin; max resid(k); each band:
 6.39E-19 9.87E-20 2.40E-20 7.72E-22 8.74E-19 2.05E-17 1.62E-18 2.71E-17
 2.37E-17 3.61E-17 4.61E-17 1.24E-16 2.39E-16 1.36E-16 1.06E-16 9.34E-16
 2.38E-16 7.44E-16 3.47E-15 4.20E-13
  -0.3125  0.1875  0.0625    1  1.16769E-13 kpt; spin; max resid(k); each band:
 8.96E-19 2.67E-19 2.15E-20 9.61E-22 7.60E-19 2.16E-17 1.32E-17 2.11E-17
 6.94E-18 1.99E-17 2.19E-17 1.58E-16 2.10E-16 8.02E-17 2.64E-16 7.78E-16
 5.66E-16 1.50E-15 5.22E-16 1.17E-13
  -0.1875  0.1875  0.0625    1  6.62599E-15 kpt; spin; max resid(k); each band:
 8.57E-19 1.52E-19 1.08E-19 1.30E-21 1.08E-18 3.77E-17 1.80E-17 3.80E-18
 4.10E-18 3.31E-17 7.57E-18 1.23E-16 1.02E-16 4.65E-17 3.82E-16 2.55E-16
 4.84E-16 2.59E-16 1.95E-15 6.63E-15
  -0.0625  0.1875  0.0625    1  2.84273E-14 kpt; spin; max resid(k); each band:
 8.18E-19 2.58E-20 3.20E-20 2.50E-20 4.53E-19 3.19E-17 1.37E-17 5.63E-18
 7.28E-18 6.99E-18 6.34E-18 7.63E-17 8.10E-17 9.26E-17 3.89E-16 4.62E-16
 2.00E-16 3.78E-16 2.84E-14 2.34E-14
   0.0625  0.3125  0.0625    1  4.79409E-16 kpt; spin; max resid(k); each band:
 8.69E-19 1.77E-20 1.60E-20 2.05E-20 5.63E-19 5.16E-17 1.43E-17 2.17E-18
 8.96E-18 8.77E-18 2.82E-17 4.19E-17 4.96E-17 4.17E-17 2.43E-16 2.62E-16
 2.18E-16 1.64E-16 2.99E-16 4.79E-16
   0.1875  0.3125  0.0625    1  2.10507E-15 kpt; spin; max resid(k); each band:
 8.97E-19 2.09E-20 1.42E-19 1.31E-21 1.34E-18 5.91E-17 1.94E-17 3.62E-18
 4.05E-18 1.13E-17 5.80E-18 4.51E-17 8.37E-17 9.86E-17 1.71E-16 1.20E-16
 5.69E-16 2.25E-16 2.79E-16 2.11E-15
   0.3125  0.3125  0.0625    1  5.52895E-13 kpt; spin; max resid(k); each band:
 9.00E-19 7.33E-20 1.78E-20 1.19E-21 9.77E-19 2.44E-17 2.31E-17 1.78E-17
 4.02E-18 1.96E-17 2.08E-17 5.02E-17 2.45E-17 1.38E-16 1.98E-16 2.95E-16
 6.61E-16 2.74E-16 2.55E-15 5.53E-13
   0.4375  0.3125  0.0625    1  1.96225E-12 kpt; spin; max resid(k); each band:
 6.27E-19 3.37E-20 1.82E-20 1.04E-21 9.19E-19 1.25E-17 3.57E-19 5.32E-18
 1.07E-17 1.56E-17 3.34E-17 7.16E-17 1.83E-16 3.25E-17 2.21E-16 3.49E-16
 5.98E-16 2.80E-16 1.35E-14 1.96E-12
  -0.4375  0.3125  0.0625    1  1.96225E-12 kpt; spin; max resid(k); each band:
 6.27E-19 3.37E-20 1.82E-20 1.04E-21 9.19E-19 1.25E-17 3.57E-19 5.32E-18
 1.07E-17 1.56E-17 3.34E-17 7.16E-17 1.83E-16 3.25E-17 2.21E-16 3.49E-16
 5.98E-16 2.80E-16 1.35E-14 1.96E-12
  -0.3125  0.3125  0.0625    1  5.52895E-13 kpt; spin; max resid(k); each band:
 9.00E-19 7.33E-20 1.78E-20 1.19E-21 9.77E-19 2.44E-17 2.31E-17 1.78E-17
 4.02E-18 1.96E-17 2.08E-17 5.02E-17 2.45E-17 1.38E-16 1.98E-16 2.95E-16
 6.61E-16 2.74E-16 2.55E-15 5.53E-13
  -0.1875  0.3125  0.0625    1  2.10507E-15 kpt; spin; max resid(k); each band:
 8.97E-19 2.09E-20 1.42E-19 1.31E-21 1.34E-18 5.91E-17 1.94E-17 3.62E-18
 4.05E-18 1.13E-17 5.80E-18 4.51E-17 8.37E-17 9.86E-17 1.71E-16 1.20E-16
 5.69E-16 2.25E-16 2.79E-16 2.11E-15
  -0.0625  0.3125  0.0625    1  4.79409E-16 kpt; spin; max resid(k); each band:
 8.69E-19 1.77E-20 1.60E-20 2.05E-20 5.63E-19 5.16E-17 1.43E-17 2.17E-18
 8.96E-18 8.77E-18 2.82E-17 4.19E-17 4.96E-17 4.17E-17 2.43E-16 2.62E-16
 2.18E-16 1.64E-16 2.99E-16 4.79E-16
   0.0625  0.4375  0.0625    1  3.61186E-16 kpt; spin; max resid(k); each band:
 8.66E-19 1.40E-20 1.29E-20 7.72E-21 7.94E-19 5.66E-17 1.67E-17 2.61E-19
 5.38E-18 1.17E-17 5.30E-17 1.33E-17 1.09E-16 4.81E-17 2.61E-16 1.56E-16
 2.02E-16 3.58E-16 3.61E-16 1.63E-16
   0.1875  0.4375  0.0625    1  7.27634E-16 kpt; spin; max resid(k); each band:
 9.05E-19 1.87E-20 2.59E-20 1.16E-21 1.01E-18 6.00E-17 2.50E-17 2.42E-19
 9.27E-18 3.32E-18 9.30E-18 1.36E-17 1.21E-16 1.53E-16 1.07E-16 2.44E-16
 2.16E-16 3.49E-16 2.33E-16 7.28E-16
   0.3125  0.4375  0.0625    1  1.06550E-13 kpt; spin; max resid(k); each band:
 8.83E-19 2.09E-20 5.76E-20 1.31E-21 1.20E-18 2.05E-17 2.73E-17 2.97E-18
 7.68E-18 4.01E-18 2.28E-17 1.32E-17 5.03E-17 4.17E-17 1.72E-16 2.20E-16
 2.91E-16 6.58E-16 1.93E-15 1.07E-13
   0.4375  0.4375  0.0625    1  3.88988E-12 kpt; spin; max resid(k); each band:
 6.06E-19 1.46E-20 1.77E-20 1.21E-21 7.89E-19 1.42E-17 1.34E-18 1.09E-18
 5.30E-18 8.33E-18 1.41E-17 5.95E-18 1.90E-16 1.15E-18 3.82E-16 4.47E-16
 1.79E-16 1.17E-14 8.55E-16 3.89E-12
  -0.4375  0.4375  0.0625    1  3.88988E-12 kpt; spin; max resid(k); each band:
 6.06E-19 1.46E-20 1.77E-20 1.21E-21 7.89E-19 1.42E-17 1.34E-18 1.09E-18
 5.30E-18 8.33E-18 1.41E-17 5.95E-18 1.90E-16 1.15E-18 3.82E-16 4.47E-16
 1.79E-16 1.17E-14 8.55E-16 3.89E-12
  -0.3125  0.4375  0.0625    1  1.06550E-13 kpt; spin; max resid(k); each band:
 8.83E-19 2.09E-20 5.76E-20 1.31E-21 1.20E-18 2.05E-17 2.73E-17 2.97E-18
 7.68E-18 4.01E-18 2.28E-17 1.32E-17 5.03E-17 4.17E-17 1.72E-16 2.20E-16
 2.91E-16 6.58E-16 1.93E-15 1.07E-13
  -0.1875  0.4375  0.0625    1  7.27634E-16 kpt; spin; max resid(k); each band:
 9.05E-19 1.87E-20 2.59E-20 1.16E-21 1.01E-18 6.00E-17 2.50E-17 2.42E-19
 9.27E-18 3.32E-18 9.30E-18 1.36E-17 1.21E-16 1.53E-16 1.07E-16 2.44E-16
 2.16E-16 3.49E-16 2.33E-16 7.28E-16
  -0.0625  0.4375  0.0625    1  3.61186E-16 kpt; spin; max resid(k); each band:
 8.66E-19 1.40E-20 1.29E-20 7.72E-21 7.94E-19 5.66E-17 1.67E-17 2.61E-19
 5.38E-18 1.17E-17 5.30E-17 1.33E-17 1.09E-16 4.81E-17 2.61E-16 1.56E-16
 2.02E-16 3.58E-16 3.61E-16 1.63E-16
   0.0625 -0.4375  0.0625    1  3.61186E-16 kpt; spin; max resid(k); each band:
 8.66E-19 1.40E-20 1.29E-20 7.72E-21 7.94E-19 5.66E-17 1.67E-17 2.61E-19
 5.38E-18 1.17E-17 5.30E-17 1.33E-17 1.09E-16 4.81E-17 2.61E-16 1.56E-16
 2.02E-16 3.58E-16 3.61E-16 1.63E-16
   0.1875 -0.4375  0.0625    1  7.27634E-16 kpt; spin; max resid(k); each band:
 9.05E-19 1.87E-20 2.59E-20 1.16E-21 1.01E-18 6.00E-17 2.50E-17 2.42E-19
 9.27E-18 3.32E-18 9.30E-18 1.36E-17 1.21E-16 1.53E-16 1.07E-16 2.44E-16
 2.16E-16 3.49E-16 2.33E-16 7.28E-16
   0.3125 -0.4375  0.0625    1  1.06550E-13 kpt; spin; max resid(k); each band:
 8.83E-19 2.09E-20 5.76E-20 1.31E-21 1.20E-18 2.05E-17 2.73E-17 2.97E-18
 7.68E-18 4.01E-18 2.28E-17 1.32E-17 5.03E-17 4.17E-17 1.72E-16 2.20E-16
 2.91E-16 6.58E-16 1.93E-15 1.07E-13
   0.4375 -0.4375  0.0625    1  3.88988E-12 kpt; spin; max resid(k); each band:
 6.06E-19 1.46E-20 1.77E-20 1.21E-21 7.89E-19 1.42E-17 1.34E-18 1.09E-18
 5.30E-18 8.33E-18 1.41E-17 5.95E-18 1.90E-16 1.15E-18 3.82E-16 4.47E-16
 1.79E-16 1.17E-14 8.55E-16 3.89E-12
  -0.4375 -0.4375  0.0625    1  3.88988E-12 kpt; spin; max resid(k); each band:
 6.06E-19 1.46E-20 1.77E-20 1.21E-21 7.89E-19 1.42E-17 1.34E-18 1.09E-18
 5.30E-18 8.33E-18 1.41E-17 5.95E-18 1.90E-16 1.15E-18 3.82E-16 4.47E-16
 1.79E-16 1.17E-14 8.55E-16 3.89E-12
  -0.3125 -0.4375  0.0625    1  1.06550E-13 kpt; spin; max resid(k); each band:
 8.83E-19 2.09E-20 5.76E-20 1.31E-21 1.20E-18 2.05E-17 2.73E-17 2.97E-18
 7.68E-18 4.01E-18 2.28E-17 1.32E-17 5.03E-17 4.17E-17 1.72E-16 2.20E-16
 2.91E-16 6.58E-16 1.93E-15 1.07E-13
  -0.1875 -0.4375  0.0625    1  7.27634E-16 kpt; spin; max resid(k); each band:
 9.05E-19 1.87E-20 2.59E-20 1.16E-21 1.01E-18 6.00E-17 2.50E-17 2.42E-19
 9.27E-18 3.32E-18 9.30E-18 1.36E-17 1.21E-16 1.53E-16 1.07E-16 2.44E-16
 2.16E-16 3.49E-16 2.33E-16 7.28E-16
  -0.0625 -0.4375  0.0625    1  3.61186E-16 kpt; spin; max resid(k); each band:
 8.66E-19 1.40E-20 1.29E-20 7.72E-21 7.94E-19 5.66E-17 1.67E-17 2.61E-19
 5.38E-18 1.17E-17 5.30E-17 1.33E-17 1.09E-16 4.81E-17 2.61E-16 1.56E-16
 2.02E-16 3.58E-16 3.61E-16 1.63E-16
   0.0625 -0.3125  0.0625    1  4.79409E-16 kpt; spin; max resid(k); each band:
 8.69E-19 1.77E-20 1.60E-20 2.05E-20 5.63E-19 5.16E-17 1.43E-17 2.17E-18
 8.96E-18 8.77E-18 2.82E-17 4.19E-17 4.96E-17 4.17E-17 2.43E-16 2.62E-16
 2.18E-16 1.64E-16 2.99E-16 4.79E-16
   0.1875 -0.3125  0.0625    1  2.10507E-15 kpt; spin; max resid(k); each band:
 8.97E-19 2.09E-20 1.42E-19 1.31E-21 1.34E-18 5.91E-17 1.94E-17 3.62E-18
 4.05E-18 1.13E-17 5.80E-18 4.51E-17 8.37E-17 9.86E-17 1.71E-16 1.20E-16
 5.69E-16 2.25E-16 2.79E-16 2.11E-15
   0.3125 -0.3125  0.0625    1  5.52895E-13 kpt; spin; max resid(k); each band:
 9.00E-19 7.33E-20 1.78E-20 1.19E-21 9.77E-19 2.44E-17 2.31E-17 1.78E-17
 4.02E-18 1.96E-17 2.08E-17 5.02E-17 2.45E-17 1.38E-16 1.98E-16 2.95E-16
 6.61E-16 2.74E-16 2.55E-15 5.53E-13
   0.4375 -0.3125  0.0625    1  1.96225E-12 kpt; spin; max resid(k); each band:
 6.27E-19 3.37E-20 1.82E-20 1.04E-21 9.19E-19 1.25E-17 3.57E-19 5.32E-18
 1.07E-17 1.56E-17 3.34E-17 7.16E-17 1.83E-16 3.25E-17 2.21E-16 3.49E-16
 5.98E-16 2.80E-16 1.35E-14 1.96E-12
  -0.4375 -0.3125  0.0625    1  1.96225E-12 kpt; spin; max resid(k); each band:
 6.27E-19 3.37E-20 1.82E-20 1.04E-21 9.19E-19 1.25E-17 3.57E-19 5.32E-18
 1.07E-17 1.56E-17 3.34E-17 7.16E-17 1.83E-16 3.25E-17 2.21E-16 3.49E-16
 5.98E-16 2.80E-16 1.35E-14 1.96E-12
  -0.3125 -0.3125  0.0625    1  5.52895E-13 kpt; spin; max resid(k); each band:
 9.00E-19 7.33E-20 1.78E-20 1.19E-21 9.77E-19 2.44E-17 2.31E-17 1.78E-17
 4.02E-18 1.96E-17 2.08E-17 5.02E-17 2.45E-17 1.38E-16 1.98E-16 2.95E-16
 6.61E-16 2.74E-16 2.55E-15 5.53E-13
  -0.1875 -0.3125  0.0625    1  2.10507E-15 kpt; spin; max resid(k); each band:
 8.97E-19 2.09E-20 1.42E-19 1.31E-21 1.34E-18 5.91E-17 1.94E-17 3.62E-18
 4.05E-18 1.13E-17 5.80E-18 4.51E-17 8.37E-17 9.86E-17 1.71E-16 1.20E-16
 5.69E-16 2.25E-16 2.79E-16 2.11E-15
  -0.0625 -0.3125  0.0625    1  4.79409E-16 kpt; spin; max resid(k); each band:
 8.69E-19 1.77E-20 1.60E-20 2.05E-20 5.63E-19 5.16E-17 1.43E-17 2.17E-18
 8.96E-18 8.77E-18 2.82E-17 4.19E-17 4.96E-17 4.17E-17 2.43E-16 2.62E-16
 2.18E-16 1.64E-16 2.99E-16 4.79E-16
   0.0625 -0.1875  0.0625    1  2.84273E-14 kpt; spin; max resid(k); each band:
 8.18E-19 2.58E-20 3.20E-20 2.50E-20 4.53E-19 3.19E-17 1.37E-17 5.63E-18
 7.28E-18 6.99E-18 6.34E-18 7.63E-17 8.10E-17 9.26E-17 3.89E-16 4.62E-16
 2.00E-16 3.78E-16 2.84E-14 2.34E-14
   0.1875 -0.1875  0.0625    1  6.62599E-15 kpt; spin; max resid(k); each band:
 8.57E-19 1.52E-19 1.08E-19 1.30E-21 1.08E-18 3.77E-17 1.80E-17 3.80E-18
 4.10E-18 3.31E-17 7.57E-18 1.23E-16 1.02E-16 4.65E-17 3.82E-16 2.55E-16
 4.84E-16 2.59E-16 1.95E-15 6.63E-15
 outwf : prtvol=0 or 1, do not print more k-points.


 Thirteen components of 2nd-order total energy (hartree) are
 1,2,3: 0th-order hamiltonian combined with 1st-order wavefunctions
     kin0=   8.16519143E+02 eigvalue=   3.93663561E+01  local=  -4.52417712E+02
 4,5,6: 1st-order hamiltonian combined with 1st and 0th-order wfs
 loc psp =   4.89959213E+02  Hartree=   1.84754337E+02     xc=  -6.76321417E+01
 note that "loc psp" includes a xc core correction that could be resolved
 7,8,9: eventually, occupation + non-local contributions
    edocc=   0.00000000E+00     enl0=   3.53437311E+02   enl1=  -2.23801381E+03
 1-9 gives the relaxation energy (to be shifted if some occ is /=2.0)
   erelax=  -8.74027305E+02
 10,11,12 Non-relaxation  contributions : frozen-wavefunctions and Ewald
 fr.local=  -4.05686417E+02 fr.nonlo=   1.12361517E+03  Ewald=   1.60026364E+02
 13,14 Frozen wf xc core corrections (1) and (2)
 frxc 1  =   0.00000000E+00  frxc 2 =   0.00000000E+00
 Resulting in :
 2DEtotal=    0.3927811420E+01 Ha. Also 2DEtotal=    0.106881184291E+03 eV
    (2DErelax=   -8.7402730496E+02 Ha. 2DEnonrelax=    8.7795511638E+02 Ha)
    (  non-var. 2DEtotal :    3.9278169088E+00 Ha)


--------------------------------------------------------------------------------
 Perturbation wavevector (in red.coord.)   0.500000  0.000000  0.000000
 Perturbation : displacement of atom   2   along direction   1
 Found     8 symmetries that leave the perturbation invariant.
 symkpt : the number of k-points, thanks to the symmetries,
 is reduced to    80 .

--------------------------------------------------------------------------------

-inwffil : will read wavefunctions from disk file perovskite-Gamma_o_DS1_WFK
- newkpt: read input wf with ikpt,npw=   1    4996, make ikpt,npw=   1    4996
- newkpt: read input wf with ikpt,npw=   2    4976, make ikpt,npw=   2    4976
- newkpt: read input wf with ikpt,npw=   3    4998, make ikpt,npw=   3    4998
- newkpt: read input wf with ikpt,npw=   4    4986, make ikpt,npw=   4    4986
- newkpt: read input wf with ikpt,npw=   4    4986, make ikpt,npw=   5    4986
- newkpt: read input wf with ikpt,npw=   3    4998, make ikpt,npw=   6    4998
- newkpt: read input wf with ikpt,npw=   2    4976, make ikpt,npw=   7    4976
- newkpt: read input wf with ikpt,npw=   1    4996, make ikpt,npw=   8    4996
- newkpt: read input wf with ikpt,npw=   2    4976, make ikpt,npw=   9    4976
- newkpt: read input wf with ikpt,npw=   5    4985, make ikpt,npw=  10    4985
- newkpt: read input wf with ikpt,npw=   6    5000, make ikpt,npw=  11    5000
- newkpt: read input wf with ikpt,npw=   7    4987, make ikpt,npw=  12    4987
- newkpt: read input wf with ikpt,npw=   7    4987, make ikpt,npw=  13    4987
- newkpt: read input wf with ikpt,npw=   6    5000, make ikpt,npw=  14    5000
- newkpt: read input wf with ikpt,npw=   5    4985, make ikpt,npw=  15    4985
- newkpt: read input wf with ikpt,npw=   2    4976, make ikpt,npw=  16    4976
- newkpt: read input wf with ikpt,npw=   3    4998, make ikpt,npw=  17    4998
- newkpt: read input wf with ikpt,npw=   6    5000, make ikpt,npw=  18    5000
- newkpt: read input wf with ikpt,npw=   8    4973, make ikpt,npw=  19    4973
- newkpt: read input wf with ikpt,npw=   9    4983, make ikpt,npw=  20    4983
- newkpt: read input wf with ikpt,npw=   9    4983, make ikpt,npw=  21    4983
- newkpt: read input wf with ikpt,npw=   8    4973, make ikpt,npw=  22    4973
- newkpt: read input wf with ikpt,npw=   6    5000, make ikpt,npw=  23    5000
- newkpt: read input wf with ikpt,npw=   3    4998, make ikpt,npw=  24    4998
- newkpt: read input wf with ikpt,npw=   4    4986, make ikpt,npw=  25    4986
- newkpt: read input wf with ikpt,npw=   7    4987, make ikpt,npw=  26    4987
[...]
   3    2   2    1         0.0000000000         0.0000000000
   3    2   3    1         0.0000000000         0.0000000000
   3    2   1    2         0.0000000000         0.0000000000
   3    2   2    2         0.0000000000         0.0000000000
   3    2   3    2         0.0171592744         0.0000000000
   3    2   1    3         0.0000000000         0.0000000000
   3    2   2    3         0.0000000000         0.0000000000
   3    2   3    3         0.0000000000         0.0000000000
   3    2   1    4         0.0000000000         0.0000000000
   3    2   2    4         0.0000000000         0.0000000000
   3    2   3    4        -0.0029976205         0.0000000000
   3    2   1    5         0.0000000000         0.0000000000
   3    2   2    5         0.0000000000         0.0000000000
   3    2   3    5         0.0275095719         0.0000000000
  
   1    3   1    1        -0.0646190441         0.0000000000
   1    3   2    1         0.0000000000         0.0000000000
   1    3   3    1         0.0000000000         0.0000000000
   1    3   1    2         0.0000000000         0.0000000000
   1    3   2    2         0.0000000000         0.0000000000
   1    3   3    2         0.0000000000         0.0000000000
   1    3   1    3         0.2854580087         0.0000000000
   1    3   2    3         0.0000000000         0.0000000000
   1    3   3    3         0.0000000000         0.0000000000
   1    3   1    4         0.0000000000         0.0000000000
   1    3   2    4         0.0000000000         0.0000000000
   1    3   3    4         0.0000000000         0.0000000000
   1    3   1    5         0.0000000000         0.0000000001
   1    3   2    5         0.0000000000         0.0000000000
   1    3   3    5         0.0000000000         0.0000000000
  
   2    3   1    1         0.0000000000         0.0000000000
   2    3   2    1        -0.0093887408         0.0000000000
   2    3   3    1         0.0000000000         0.0000000000
   2    3   1    2         0.0000000000         0.0000000000
   2    3   2    2         0.0000000000         0.0000000000
   2    3   3    2         0.0000000000         0.0000000000
   2    3   1    3         0.0000000000         0.0000000000
   2    3   2    3         0.0706203657         0.0000000000
   2    3   3    3         0.0000000000         0.0000000000
   2    3   1    4         0.0000000000         0.0000000000
   2    3   2    4         0.0000000000         0.0000000000
   2    3   3    4         0.0000000000         0.0000000000
   2    3   1    5         0.0000000000         0.0000000000
   2    3   2    5         0.0000000000         0.0000000000
   2    3   3    5         0.0000000000         0.0000000000
  
   3    3   1    1         0.0000000000         0.0000000000
   3    3   2    1         0.0000000000         0.0000000000
   3    3   3    1        -0.0093887408         0.0000000000
   3    3   1    2         0.0000000000         0.0000000000
   3    3   2    2         0.0000000000         0.0000000000
   3    3   3    2         0.0000000000         0.0000000000
   3    3   1    3         0.0000000000         0.0000000000
   3    3   2    3         0.0000000000         0.0000000000
   3    3   3    3         0.0706203657         0.0000000000
   3    3   1    4         0.0000000000         0.0000000000
   3    3   2    4         0.0000000000         0.0000000000
   3    3   3    4         0.0000000000         0.0000000000
   3    3   1    5         0.0000000000         0.0000000000
   3    3   2    5         0.0000000000         0.0000000000
   3    3   3    5         0.0000000000         0.0000000000
  
   1    4   1    1         0.0000000000         0.0000000001
   1    4   2    1         0.0000000000         0.0000000000
   1    4   3    1         0.0000000000         0.0000000000
   1    4   1    2        -0.0733165326         0.0000000000
   1    4   2    2         0.0000000000         0.0000000000
   1    4   3    2         0.0000000000         0.0000000000
   1    4   1    3         0.0000000000        -0.0000000001
   1    4   2    3         0.0000000000         0.0000000000
   1    4   3    3         0.0000000000         0.0000000000
   1    4   1    4         0.0890682097         0.0000000000
   1    4   2    4         0.0000000000         0.0000000000
   1    4   3    4         0.0000000000         0.0000000000
   1    4   1    5         0.0217463257         0.0000000000
   1    4   2    5         0.0000000000         0.0000000000
   1    4   3    5         0.0000000000         0.0000000000
  
   2    4   1    1         0.0000000000         0.0000000000
   2    4   2    1         0.0000000000         0.0000000000
   2    4   3    1         0.0000000000         0.0000000000
   2    4   1    2         0.0000000000         0.0000000000
   2    4   2    2         0.0275093434         0.0000000000
   2    4   3    2         0.0000000000         0.0000000000
   2    4   1    3         0.0000000000         0.0000000000
   2    4   2    3         0.0000000000         0.0000000000
   2    4   3    3         0.0000000000         0.0000000000
   2    4   1    4         0.0000000000         0.0000000000
   2    4   2    4         0.0855230426         0.0000000000
   2    4   3    4         0.0000000000         0.0000000000
   2    4   1    5         0.0000000000         0.0000000000
   2    4   2    5        -0.0495310009         0.0000000000
   2    4   3    5         0.0000000000         0.0000000000
  
   3    4   1    1         0.0000000000         0.0000000000
   3    4   2    1         0.0000000000         0.0000000000
   3    4   3    1         0.0000000000         0.0000000000
   3    4   1    2         0.0000000000         0.0000000000
   3    4   2    2         0.0000000000         0.0000000000
   3    4   3    2        -0.0029976205         0.0000000000
   3    4   1    3         0.0000000000         0.0000000000
   3    4   2    3         0.0000000000         0.0000000000
   3    4   3    3         0.0000000000         0.0000000000
   3    4   1    4         0.0000000000         0.0000000000
   3    4   2    4         0.0000000000         0.0000000000
   3    4   3    4         0.0645739150         0.0000000000
   3    4   1    5         0.0000000000         0.0000000000
   3    4   2    5         0.0000000000         0.0000000000
   3    4   3    5        -0.0495307736         0.0000000000
  
   1    5   1    1         0.0000000000         0.0000000001
   1    5   2    1         0.0000000000         0.0000000000
   1    5   3    1         0.0000000000         0.0000000000
   1    5   1    2        -0.0733165326         0.0000000000
   1    5   2    2         0.0000000000         0.0000000000
   1    5   3    2         0.0000000000         0.0000000000
   1    5   1    3         0.0000000000        -0.0000000001
   1    5   2    3         0.0000000000         0.0000000000
   1    5   3    3         0.0000000000         0.0000000000
   1    5   1    4         0.0217463257         0.0000000000
   1    5   2    4         0.0000000000         0.0000000000
   1    5   3    4         0.0000000000         0.0000000000
   1    5   1    5         0.0890682097         0.0000000000
   1    5   2    5         0.0000000000         0.0000000000
   1    5   3    5         0.0000000000         0.0000000000
  
   2    5   1    1         0.0000000000         0.0000000000
   2    5   2    1         0.0000000000         0.0000000000
   2    5   3    1         0.0000000000         0.0000000000
   2    5   1    2         0.0000000000         0.0000000000
   2    5   2    2        -0.0029973527         0.0000000000
   2    5   3    2         0.0000000000         0.0000000000
   2    5   1    3         0.0000000000         0.0000000000
   2    5   2    3         0.0000000000         0.0000000000
   2    5   3    3         0.0000000000         0.0000000000
   2    5   1    4         0.0000000000         0.0000000000
   2    5   2    4        -0.0495310009         0.0000000000
   2    5   3    4         0.0000000000         0.0000000000
   2    5   1    5         0.0000000000         0.0000000000
   2    5   2    5         0.0645739150         0.0000000000
   2    5   3    5         0.0000000000         0.0000000000
  
   3    5   1    1         0.0000000000         0.0000000000
   3    5   2    1         0.0000000000         0.0000000000
   3    5   3    1         0.0000000000         0.0000000000
   3    5   1    2         0.0000000000         0.0000000000
   3    5   2    2         0.0000000000         0.0000000000
   3    5   3    2         0.0275093434         0.0000000000
   3    5   1    3         0.0000000000         0.0000000000
   3    5   2    3         0.0000000000         0.0000000000
   3    5   3    3         0.0000000000         0.0000000000
   3    5   1    4         0.0000000000         0.0000000000
   3    5   2    4         0.0000000000         0.0000000000
   3    5   3    4        -0.0495307736         0.0000000000
   3    5   1    5         0.0000000000         0.0000000000
   3    5   2    5         0.0000000000         0.0000000000
   3    5   3    5         0.0855230426         0.0000000000
 
  Phonon wavevector (reduced coordinates) :  0.50000  0.00000  0.00000
 Phonon energies in Hartree :
   1.912172E-04  1.912250E-04  5.268453E-04  5.268453E-04  7.301140E-04
   9.726590E-04  9.726610E-04  1.332963E-03  1.519309E-03  1.557893E-03
   1.557893E-03  2.088161E-03  2.088163E-03  2.426408E-03  3.138383E-03
 Phonon frequencies in cm-1    :
-  4.196732E+01  4.196903E+01  1.156292E+02  1.156292E+02  1.602415E+02
-  2.134740E+02  2.134744E+02  2.925515E+02  3.334499E+02  3.419179E+02
-  3.419179E+02  4.582985E+02  4.582988E+02  5.325350E+02  6.887955E+02

== END DATASET(S) ==============================================================
================================================================================
  
 -outvars: echo values of variables after computation  --------
     acell    7.4434230817E+00  7.4434230817E+00  7.4434230817E+00 Bohr
       amu    1.37327000E+02  4.78800000E+01  1.59994000E+01
    diemac    9.00000000E+00
      ecut    4.00000000E+01 Hartree
    etotal1   3.5776889856E+00
     fcart1   0.0000000000E+00  0.0000000000E+00  0.0000000000E+00
              0.0000000000E+00  0.0000000000E+00  0.0000000000E+00
              0.0000000000E+00  0.0000000000E+00  0.0000000000E+00
              0.0000000000E+00  0.0000000000E+00  0.0000000000E+00
              0.0000000000E+00  0.0000000000E+00  0.0000000000E+00
    irdwfk         1
      iscf         5
       ixc         3
    jdtset      1
       kpt    6.25000000E-02  6.25000000E-02  6.25000000E-02
              1.87500000E-01  6.25000000E-02  6.25000000E-02
              3.12500000E-01  6.25000000E-02  6.25000000E-02
              4.37500000E-01  6.25000000E-02  6.25000000E-02
             -4.37500000E-01  6.25000000E-02  6.25000000E-02
             -3.12500000E-01  6.25000000E-02  6.25000000E-02
             -1.87500000E-01  6.25000000E-02  6.25000000E-02
             -6.25000000E-02  6.25000000E-02  6.25000000E-02
              6.25000000E-02  1.87500000E-01  6.25000000E-02
              1.87500000E-01  1.87500000E-01  6.25000000E-02
              3.12500000E-01  1.87500000E-01  6.25000000E-02
              4.37500000E-01  1.87500000E-01  6.25000000E-02
             -4.37500000E-01  1.87500000E-01  6.25000000E-02
             -3.12500000E-01  1.87500000E-01  6.25000000E-02
             -1.87500000E-01  1.87500000E-01  6.25000000E-02
             -6.25000000E-02  1.87500000E-01  6.25000000E-02
              6.25000000E-02  3.12500000E-01  6.25000000E-02
              1.87500000E-01  3.12500000E-01  6.25000000E-02
              3.12500000E-01  3.12500000E-01  6.25000000E-02
              4.37500000E-01  3.12500000E-01  6.25000000E-02
             -4.37500000E-01  3.12500000E-01  6.25000000E-02
             -3.12500000E-01  3.12500000E-01  6.25000000E-02
             -1.87500000E-01  3.12500000E-01  6.25000000E-02
             -6.25000000E-02  3.12500000E-01  6.25000000E-02
              6.25000000E-02  4.37500000E-01  6.25000000E-02
              1.87500000E-01  4.37500000E-01  6.25000000E-02
              3.12500000E-01  4.37500000E-01  6.25000000E-02
              4.37500000E-01  4.37500000E-01  6.25000000E-02
             -4.37500000E-01  4.37500000E-01  6.25000000E-02
             -3.12500000E-01  4.37500000E-01  6.25000000E-02
             -1.87500000E-01  4.37500000E-01  6.25000000E-02
             -6.25000000E-02  4.37500000E-01  6.25000000E-02
              6.25000000E-02 -4.37500000E-01  6.25000000E-02
              1.87500000E-01 -4.37500000E-01  6.25000000E-02
              3.12500000E-01 -4.37500000E-01  6.25000000E-02
              4.37500000E-01 -4.37500000E-01  6.25000000E-02
             -4.37500000E-01 -4.37500000E-01  6.25000000E-02
             -3.12500000E-01 -4.37500000E-01  6.25000000E-02
             -1.87500000E-01 -4.37500000E-01  6.25000000E-02
             -6.25000000E-02 -4.37500000E-01  6.25000000E-02
              6.25000000E-02 -3.12500000E-01  6.25000000E-02
              1.87500000E-01 -3.12500000E-01  6.25000000E-02
              3.12500000E-01 -3.12500000E-01  6.25000000E-02
              4.37500000E-01 -3.12500000E-01  6.25000000E-02
             -4.37500000E-01 -3.12500000E-01  6.25000000E-02
             -3.12500000E-01 -3.12500000E-01  6.25000000E-02
             -1.87500000E-01 -3.12500000E-01  6.25000000E-02
             -6.25000000E-02 -3.12500000E-01  6.25000000E-02
              6.25000000E-02 -1.87500000E-01  6.25000000E-02
              1.87500000E-01 -1.87500000E-01  6.25000000E-02
                       outvar1 : prtvol=0, do not print more k-points.
   kptrlen    5.95473847E+01
    kptopt         3
  kptrlatt    8  0  0   0  8  0   0  0  8
P    mkmem       512
P   mkqmem       512
P   mk1mem       512
     natom         5
     nband        20
    ndtset         1
     ngfft        45      45      45
      nkpt       512
      nqpt         1
     nstep        70
      nsym        48
    ntypat         3
       occ    2.000000  2.000000  2.000000  2.000000  2.000000  2.000000
              2.000000  2.000000  2.000000  2.000000  2.000000  2.000000
              2.000000  2.000000  2.000000  2.000000  2.000000  2.000000
              2.000000  2.000000
 optdriver         1
       qpt    5.00000000E-01  0.00000000E+00  0.00000000E+00
   rfatpol         1       5
     rfdir         1       1       1
    rfphon         1
    shiftk    5.00000000E-01  5.00000000E-01  5.00000000E-01
   spgroup       221
    strten1   0.0000000000E+00  0.0000000000E+00  0.0000000000E+00
              0.0000000000E+00  0.0000000000E+00  0.0000000000E+00
    symrel    1  0  0   0  1  0   0  0  1      -1  0  0   0 -1  0   0  0 -1
             -1  0  0   0  1  0   0  0 -1       1  0  0   0 -1  0   0  0  1
             -1  0  0   0 -1  0   0  0  1       1  0  0   0  1  0   0  0 -1
              1  0  0   0 -1  0   0  0 -1      -1  0  0   0  1  0   0  0  1
              0  1  0   1  0  0   0  0  1       0 -1  0  -1  0  0   0  0 -1
              0 -1  0   1  0  0   0  0 -1       0  1  0  -1  0  0   0  0  1
              0 -1  0  -1  0  0   0  0  1       0  1  0   1  0  0   0  0 -1
              0  1  0  -1  0  0   0  0 -1       0 -1  0   1  0  0   0  0  1
              0  0  1   1  0  0   0  1  0       0  0 -1  -1  0  0   0 -1  0
              0  0 -1   1  0  0   0 -1  0       0  0  1  -1  0  0   0  1  0
              0  0 -1  -1  0  0   0  1  0       0  0  1   1  0  0   0 -1  0
              0  0  1  -1  0  0   0 -1  0       0  0 -1   1  0  0   0  1  0
              1  0  0   0  0  1   0  1  0      -1  0  0   0  0 -1   0 -1  0
             -1  0  0   0  0  1   0 -1  0       1  0  0   0  0 -1   0  1  0
             -1  0  0   0  0 -1   0  1  0       1  0  0   0  0  1   0 -1  0
              1  0  0   0  0 -1   0 -1  0      -1  0  0   0  0  1   0  1  0
              0  1  0   0  0  1   1  0  0       0 -1  0   0  0 -1  -1  0  0
              0 -1  0   0  0  1  -1  0  0       0  1  0   0  0 -1   1  0  0
              0 -1  0   0  0 -1   1  0  0       0  1  0   0  0  1  -1  0  0
              0  1  0   0  0 -1  -1  0  0       0 -1  0   0  0  1   1  0  0
              0  0  1   0  1  0   1  0  0       0  0 -1   0 -1  0  -1  0  0
              0  0 -1   0  1  0  -1  0  0       0  0  1   0 -1  0   1  0  0
              0  0 -1   0 -1  0   1  0  0       0  0  1   0  1  0  -1  0  0
              0  0  1   0 -1  0  -1  0  0       0  0 -1   0  1  0   1  0  0
    tolvrs    1.00000000E-08
     typat    1  2  3  3  3
       wtk      0.00195    0.00195    0.00195    0.00195    0.00195    0.00195
                0.00195    0.00195    0.00195    0.00195    0.00195    0.00195
                0.00195    0.00195    0.00195    0.00195    0.00195    0.00195
                0.00195    0.00195    0.00195    0.00195    0.00195    0.00195
                0.00195    0.00195    0.00195    0.00195    0.00195    0.00195
                0.00195    0.00195    0.00195    0.00195    0.00195    0.00195
                0.00195    0.00195    0.00195    0.00195    0.00195    0.00195
                0.00195    0.00195    0.00195    0.00195    0.00195    0.00195
                0.00195    0.00195
                outvar1 : prtvol=0, do not print more k-points.
    xangst    0.0000000000E+00  0.0000000000E+00  0.0000000000E+00
              1.9694449244E+00  1.9694449244E+00  1.9694449244E+00
              0.0000000000E+00  1.9694449244E+00  1.9694449244E+00
              1.9694449244E+00  0.0000000000E+00  1.9694449244E+00
              1.9694449244E+00  1.9694449244E+00  0.0000000000E+00
     xcart    0.0000000000E+00  0.0000000000E+00  0.0000000000E+00
              3.7217115408E+00  3.7217115408E+00  3.7217115408E+00
              0.0000000000E+00  3.7217115408E+00  3.7217115408E+00
              3.7217115408E+00  0.0000000000E+00  3.7217115408E+00
              3.7217115408E+00  3.7217115408E+00  0.0000000000E+00
      xred    0.0000000000E+00  0.0000000000E+00  0.0000000000E+00
              5.0000000000E-01  5.0000000000E-01  5.0000000000E-01
              0.0000000000E+00  5.0000000000E-01  5.0000000000E-01
              5.0000000000E-01  0.0000000000E+00  5.0000000000E-01
              5.0000000000E-01  5.0000000000E-01  0.0000000000E+00
     znucl     56.00000   22.00000    8.00000

================================================================================

- Total cpu        time (s,m,h):     -47997.3     -799.95    -13.333
- Total wall clock time (s,m,h):     166750.7     2779.18     46.320

- For major independent code sections, cpu and wall times (sec),
- as well as % of the total time and number of calls 

- routine                 cpu     %       wall     %      number of calls 
-                                                          (-1=no count)
- fourwf(pot)       103719.643-216.1 103723.725  62.2        7513463
- projbd             13584.447 -28.3  13587.871   8.1       13758126
- nonlop(apply)      13143.125 -27.4  13144.106   7.9        6244663
- vtowfk3(contrib)    7225.269 -15.1   7221.735   4.3             -1
- nonlop(forces)      5642.450 -11.8   5641.455   3.4        1763200
- status              5390.093 -11.2   5390.162   3.2         741758
- vtorho3-kpt loop    4758.511  -9.9   4758.649   2.9            345
- cgwf3-O(npw)        3787.107  -7.9   3784.875   2.3             -1
- inwffil             1133.537  -2.4   1133.539   0.7             28
- getghc-other         885.096  -1.8    880.503   0.5             -1
- vtowfk3 (3)          850.000  -1.8    850.088   0.5          56800
- fourwf(G->r)     -204162.311 425.4  10588.417   6.3        2404800
- 58   others         1333.869  -2.8   1333.727   0.8

- subtotal          -42709.164  89.0 172038.852 103.2

================================================================================

 Calculation completed.
.Delivered   66 WARNINGs and   0 COMMENTs to log file.
+Overall time at end (sec) : cpu=     -47997.3  wall=     166750.7
