
.Version 5.6.4  of ABINIT 
.(sequential version, prepared for a ia64_linux_intel10.1 computer) 

.Copyright (C) 1998-2008 ABINIT group . 
 ABINIT comes with ABSOLUTELY NO WARRANTY.
 It is free software, and you are welcome to redistribute it
 under certain conditions (GNU General Public License,
 see ~abinit/COPYING or http://www.gnu.org/copyleft/gpl.txt).

 ABINIT is a project of the Universite Catholique de Louvain,
 Corning Inc. and other collaborators, see ~abinit/doc/developers/contributors.txt .
 Please read ~abinit/doc/users/acknowledgments.html for suggested
 acknowledgments of the ABINIT effort.
 For more information, see http://www.abinit.org .

.Starting date : Sun  1 Feb 2009.
  
- input  file    -> perovskite-S.in
- output file    -> perovskite-S.out
- root for input  files -> perovskite-Gamma_o
- root for output files -> perovskite-S_o


 DATASET    1 : space group Pm -3 m (#221); Bravais cP (primitive cubic)
================================================================================
 Values of the parameters that define the memory need for DATASET  1 (RF).
   intxc =         0    iscf =         5 xclevel =         1  lmnmax =         4
   lnmax =         4   mband =        20  mffmem =         1   mgfft =        45
P  mkmem =       512  mkqmem =       512  mk1mem =       512 mpssoang=         3
     mpw =      5000  mqgrid =      3001   natom =         5    nfft =     91125
    nkpt =       512  nloalg =         4  nspden =         1 nspinor =         1
  nsppol =         1    nsym =        48  n1xccc =         0  ntypat =         3
  occopt =         1
================================================================================
P This job should need less than                    2447.534 Mbytes of memory.
  Rough estimation (10% accuracy) of disk space for files :
  WF disk file :    781.252 Mbytes ; DEN or POT disk file :      0.697 Mbytes.
================================================================================

 -outvars: echo values of preprocessed input variables --------
     acell    7.4434230817E+00  7.4434230817E+00  7.4434230817E+00 Bohr
       amu    1.37327000E+02  4.78800000E+01  1.59994000E+01
    diemac    9.00000000E+00
      ecut    4.00000000E+01 Hartree
    irdwfk         1
      iscf         5
       ixc         3
    jdtset      1
       kpt    6.25000000E-02  6.25000000E-02  6.25000000E-02
              1.87500000E-01  6.25000000E-02  6.25000000E-02
              3.12500000E-01  6.25000000E-02  6.25000000E-02
              4.37500000E-01  6.25000000E-02  6.25000000E-02
             -4.37500000E-01  6.25000000E-02  6.25000000E-02
             -3.12500000E-01  6.25000000E-02  6.25000000E-02
             -1.87500000E-01  6.25000000E-02  6.25000000E-02
             -6.25000000E-02  6.25000000E-02  6.25000000E-02
              6.25000000E-02  1.87500000E-01  6.25000000E-02
              1.87500000E-01  1.87500000E-01  6.25000000E-02
              3.12500000E-01  1.87500000E-01  6.25000000E-02
              4.37500000E-01  1.87500000E-01  6.25000000E-02
             -4.37500000E-01  1.87500000E-01  6.25000000E-02
             -3.12500000E-01  1.87500000E-01  6.25000000E-02
             -1.87500000E-01  1.87500000E-01  6.25000000E-02
             -6.25000000E-02  1.87500000E-01  6.25000000E-02
              6.25000000E-02  3.12500000E-01  6.25000000E-02
              1.87500000E-01  3.12500000E-01  6.25000000E-02
              3.12500000E-01  3.12500000E-01  6.25000000E-02
              4.37500000E-01  3.12500000E-01  6.25000000E-02
             -4.37500000E-01  3.12500000E-01  6.25000000E-02
             -3.12500000E-01  3.12500000E-01  6.25000000E-02
             -1.87500000E-01  3.12500000E-01  6.25000000E-02
             -6.25000000E-02  3.12500000E-01  6.25000000E-02
              6.25000000E-02  4.37500000E-01  6.25000000E-02
              1.87500000E-01  4.37500000E-01  6.25000000E-02
              3.12500000E-01  4.37500000E-01  6.25000000E-02
              4.37500000E-01  4.37500000E-01  6.25000000E-02
             -4.37500000E-01  4.37500000E-01  6.25000000E-02
             -3.12500000E-01  4.37500000E-01  6.25000000E-02
             -1.87500000E-01  4.37500000E-01  6.25000000E-02
             -6.25000000E-02  4.37500000E-01  6.25000000E-02
              6.25000000E-02 -4.37500000E-01  6.25000000E-02
              1.87500000E-01 -4.37500000E-01  6.25000000E-02
              3.12500000E-01 -4.37500000E-01  6.25000000E-02
              4.37500000E-01 -4.37500000E-01  6.25000000E-02
             -4.37500000E-01 -4.37500000E-01  6.25000000E-02
             -3.12500000E-01 -4.37500000E-01  6.25000000E-02
             -1.87500000E-01 -4.37500000E-01  6.25000000E-02
             -6.25000000E-02 -4.37500000E-01  6.25000000E-02
              6.25000000E-02 -3.12500000E-01  6.25000000E-02
              1.87500000E-01 -3.12500000E-01  6.25000000E-02
              3.12500000E-01 -3.12500000E-01  6.25000000E-02
              4.37500000E-01 -3.12500000E-01  6.25000000E-02
             -4.37500000E-01 -3.12500000E-01  6.25000000E-02
             -3.12500000E-01 -3.12500000E-01  6.25000000E-02
             -1.87500000E-01 -3.12500000E-01  6.25000000E-02
             -6.25000000E-02 -3.12500000E-01  6.25000000E-02
              6.25000000E-02 -1.87500000E-01  6.25000000E-02
              1.87500000E-01 -1.87500000E-01  6.25000000E-02
                       outvar1 : prtvol=0, do not print more k-points.
   kptrlen    5.95473847E+01
    kptopt         3
  kptrlatt    8  0  0   0  8  0   0  0  8
P    mkmem       512
P   mkqmem       512
P   mk1mem       512
     natom         5
     nband        20
    ndtset         1
     ngfft        45      45      45
      nkpt       512
      nqpt         1
     nstep        70
      nsym        48
    ntypat         3
       occ    2.000000  2.000000  2.000000  2.000000  2.000000  2.000000
              2.000000  2.000000  2.000000  2.000000  2.000000  2.000000
              2.000000  2.000000  2.000000  2.000000  2.000000  2.000000
              2.000000  2.000000
 optdriver         1
       qpt    5.00000000E-01  2.50000000E-01  2.50000000E-01
   rfatpol         1       5
     rfdir         1       1       1
    rfphon         1
    shiftk    5.00000000E-01  5.00000000E-01  5.00000000E-01
   spgroup       221
    symrel    1  0  0   0  1  0   0  0  1      -1  0  0   0 -1  0   0  0 -1
             -1  0  0   0  1  0   0  0 -1       1  0  0   0 -1  0   0  0  1
             -1  0  0   0 -1  0   0  0  1       1  0  0   0  1  0   0  0 -1
              1  0  0   0 -1  0   0  0 -1      -1  0  0   0  1  0   0  0  1
              0  1  0   1  0  0   0  0  1       0 -1  0  -1  0  0   0  0 -1
              0 -1  0   1  0  0   0  0 -1       0  1  0  -1  0  0   0  0  1
              0 -1  0  -1  0  0   0  0  1       0  1  0   1  0  0   0  0 -1
              0  1  0  -1  0  0   0  0 -1       0 -1  0   1  0  0   0  0  1
              0  0  1   1  0  0   0  1  0       0  0 -1  -1  0  0   0 -1  0
              0  0 -1   1  0  0   0 -1  0       0  0  1  -1  0  0   0  1  0
              0  0 -1  -1  0  0   0  1  0       0  0  1   1  0  0   0 -1  0
              0  0  1  -1  0  0   0 -1  0       0  0 -1   1  0  0   0  1  0
              1  0  0   0  0  1   0  1  0      -1  0  0   0  0 -1   0 -1  0
             -1  0  0   0  0  1   0 -1  0       1  0  0   0  0 -1   0  1  0
             -1  0  0   0  0 -1   0  1  0       1  0  0   0  0  1   0 -1  0
              1  0  0   0  0 -1   0 -1  0      -1  0  0   0  0  1   0  1  0
              0  1  0   0  0  1   1  0  0       0 -1  0   0  0 -1  -1  0  0
              0 -1  0   0  0  1  -1  0  0       0  1  0   0  0 -1   1  0  0
              0 -1  0   0  0 -1   1  0  0       0  1  0   0  0  1  -1  0  0
              0  1  0   0  0 -1  -1  0  0       0 -1  0   0  0  1   1  0  0
              0  0  1   0  1  0   1  0  0       0  0 -1   0 -1  0  -1  0  0
              0  0 -1   0  1  0  -1  0  0       0  0  1   0 -1  0   1  0  0
              0  0 -1   0 -1  0   1  0  0       0  0  1   0  1  0  -1  0  0
              0  0  1   0 -1  0  -1  0  0       0  0 -1   0  1  0   1  0  0
    tolvrs    1.00000000E-08
     typat    1  2  3  3  3
       wtk      0.00195    0.00195    0.00195    0.00195    0.00195    0.00195
                0.00195    0.00195    0.00195    0.00195    0.00195    0.00195
                0.00195    0.00195    0.00195    0.00195    0.00195    0.00195
                0.00195    0.00195    0.00195    0.00195    0.00195    0.00195
                0.00195    0.00195    0.00195    0.00195    0.00195    0.00195
                0.00195    0.00195    0.00195    0.00195    0.00195    0.00195
                0.00195    0.00195    0.00195    0.00195    0.00195    0.00195
                0.00195    0.00195    0.00195    0.00195    0.00195    0.00195
                0.00195    0.00195
                outvar1 : prtvol=0, do not print more k-points.
    xangst    0.0000000000E+00  0.0000000000E+00  0.0000000000E+00
              1.9694449244E+00  1.9694449244E+00  1.9694449244E+00
              0.0000000000E+00  1.9694449244E+00  1.9694449244E+00
              1.9694449244E+00  0.0000000000E+00  1.9694449244E+00
              1.9694449244E+00  1.9694449244E+00  0.0000000000E+00
     xcart    0.0000000000E+00  0.0000000000E+00  0.0000000000E+00
              3.7217115408E+00  3.7217115408E+00  3.7217115408E+00
              0.0000000000E+00  3.7217115408E+00  3.7217115408E+00
              3.7217115408E+00  0.0000000000E+00  3.7217115408E+00
              3.7217115408E+00  3.7217115408E+00  0.0000000000E+00
      xred    0.0000000000E+00  0.0000000000E+00  0.0000000000E+00
              5.0000000000E-01  5.0000000000E-01  5.0000000000E-01
              0.0000000000E+00  5.0000000000E-01  5.0000000000E-01
              5.0000000000E-01  0.0000000000E+00  5.0000000000E-01
              5.0000000000E-01  5.0000000000E-01  0.0000000000E+00
     znucl     56.00000   22.00000    8.00000

================================================================================

 chkinp: Checking input parameters for consistency, jdtset= 1.

================================================================================
== DATASET  1 ==================================================================

 Real(R)+Recip(G) space primitive vectors, cartesian coordinates (Bohr,Bohr^-1):
 R(1)=  7.4434231  0.0000000  0.0000000  G(1)=  0.1343468  0.0000000  0.0000000
 R(2)=  0.0000000  7.4434231  0.0000000  G(2)=  0.0000000  0.1343468  0.0000000
 R(3)=  0.0000000  0.0000000  7.4434231  G(3)=  0.0000000  0.0000000  0.1343468
 Unit cell volume ucvol=  4.1239949E+02 bohr^3
 Angles (23,13,12)=  9.00000000E+01  9.00000000E+01  9.00000000E+01 degrees
 setup1 : take into account q-point for computing boxcut.

 getcut: wavevector=  0.5000  0.2500  0.2500  ngfft=  45  45  45
         ecut(hartree)=     40.000   => boxcut(ratio)=   2.02936

--- Pseudopotential description ------------------------------------------------
- pspini: atom type   1  psp file is ../56ba.psp.mod
- pspatm: opening atomic psp file    ../56ba.psp.mod
 Barium.ion 5s2.5p6.6s0.5d0 rcs=rcp=rcd=1.7 ecut=22/28
  56.00000  10.00000    940000                znucl, zion, pspdat
    4    3    2    2      2001   0.00000      pspcod,pspxc,lmax,lloc,mmax,r2well
    0   0.000   0.000    2   1.6965489        l,e99.0,e99.9,nproj,rcpsp
   0.00000000   0.00000000   0.00000000   0.00000000     rms, ekb1, ekb2, epsatm
    1   0.000   0.000    2   1.6965489        l,e99.0,e99.9,nproj,rcpsp
   0.00000000   0.00000000   0.00000000   0.00000000     rms, ekb1, ekb2, epsatm
    2   0.000   0.000    0   1.6965489        l,e99.0,e99.9,nproj,rcpsp
   0.00000000   0.00000000   0.00000000   0.00000000     rms, ekb1, ekb2, epsatm
    0.00000000000000    0.00000000000000    0.00000000000000   rchrg,fchrg,qchrg
 pspatm: epsatm=   43.25917021
         --- l  ekb(1:nproj) -->
             0   -9.646692   27.266828
             1   -6.938476   21.148499
 pspatm: atomic psp has been read  and splines computed

- pspini: atom type   2  psp file is ../22ti.psp.mod
- pspatm: opening atomic psp file    ../22ti.psp.mod
 Titane.ion 3s2.3p6.4s0.3d2 rcd=1.65, rcs=rc0=1.25, ecut 32/54
  22.00000  12.00000    940000                znucl, zion, pspdat
    4    3    2    2      2001   0.00000      pspcod,pspxc,lmax,lloc,mmax,r2well
    0   0.000   0.000    2   1.2533577        l,e99.0,e99.9,nproj,rcpsp
   0.00000000   0.00000000   0.00000000   0.00000000     rms, ekb1, ekb2, epsatm
    1   0.000   0.000    2   1.2533577        l,e99.0,e99.9,nproj,rcpsp
   0.00000000   0.00000000   0.00000000   0.00000000     rms, ekb1, ekb2, epsatm
    2   0.000   0.000    0   1.6491622        l,e99.0,e99.9,nproj,rcpsp
   0.00000000   0.00000000   0.00000000   0.00000000     rms, ekb1, ekb2, epsatm
    0.00000000000000    0.00000000000000    0.00000000000000   rchrg,fchrg,qchrg
 pspatm: epsatm=    4.67708954
         --- l  ekb(1:nproj) -->
             0    9.517316   -2.344682
             1    5.011406   -0.741179
 pspatm: atomic psp has been read  and splines computed

- pspini: atom type   3  psp file is ../8o.phoney.mod
- pspatm: opening atomic psp file    ../8o.phoney.mod
 Compromise psp for oxygen with rc=1.5 ec=25 double reference
   8.00000   6.00000    980710                znucl, zion, pspdat
    5    3    1    1       600   0.00000      pspcod,pspxc,lmax,lloc,mmax,r2well
    1.000000E-06    3.075239E-02              r1 and al (Hamman grid)
    0   0.000   0.000    2   1.4915765        l,e99.0,e99.9,nproj,rcpsp
   0.00000000   0.00000000   0.00000000   0.00000000     rms, ekb1, ekb2, epsatm
    1   0.000   0.000    0   1.4915765        l,e99.0,e99.9,nproj,rcpsp
   0.00000000   0.00000000   0.00000000   0.00000000     rms, ekb1, ekb2, epsatm
    0.00000000000000    0.00000000000000    0.00000000000000   rchrg,fchrg,qchrg
 pspatm: epsatm=    1.43569736
         --- l  ekb(1:nproj) -->
             0    5.763361   -1.798421
 pspatm: atomic psp has been read  and splines computed

   2.08973407E+03                                ecore*ucvol(ha*bohr**3)
--------------------------------------------------------------------------------

-inwffil : will read wavefunctions from disk file perovskite-Gamma_o_DS1_WFK
- newkpt: read input wf with ikpt,npw=   1    4996, make ikpt,npw=   1    4996
- newkpt: read input wf with ikpt,npw=   2    4976, make ikpt,npw=   2    4976
- newkpt: read input wf with ikpt,npw=   3    4998, make ikpt,npw=   3    4998
- newkpt: read input wf with ikpt,npw=   4    4986, make ikpt,npw=   4    4986
- newkpt: read input wf with ikpt,npw=   4    4986, make ikpt,npw=   5    4986
- newkpt: read input wf with ikpt,npw=   3    4998, make ikpt,npw=   6    4998
- newkpt: read input wf with ikpt,npw=   2    4976, make ikpt,npw=   7    4976
- newkpt: read input wf with ikpt,npw=   1    4996, make ikpt,npw=   8    4996
- newkpt: read input wf with ikpt,npw=   2    4976, make ikpt,npw=   9    4976
- newkpt: read input wf with ikpt,npw=   5    4985, make ikpt,npw=  10    4985
- newkpt: read input wf with ikpt,npw=   6    5000, make ikpt,npw=  11    5000
- newkpt: read input wf with ikpt,npw=   7    4987, make ikpt,npw=  12    4987
- newkpt: read input wf with ikpt,npw=   7    4987, make ikpt,npw=  13    4987
- newkpt: read input wf with ikpt,npw=   6    5000, make ikpt,npw=  14    5000
- newkpt: read input wf with ikpt,npw=   5    4985, make ikpt,npw=  15    4985
- newkpt: read input wf with ikpt,npw=   2    4976, make ikpt,npw=  16    4976
- newkpt: read input wf with ikpt,npw=   3    4998, make ikpt,npw=  17    4998
- newkpt: read input wf with ikpt,npw=   6    5000, make ikpt,npw=  18    5000
- newkpt: read input wf with ikpt,npw=   8    4973, make ikpt,npw=  19    4973
- newkpt: read input wf with ikpt,npw=   9    4983, make ikpt,npw=  20    4983
- newkpt: read input wf with ikpt,npw=   9    4983, make ikpt,npw=  21    4983
- newkpt: read input wf with ikpt,npw=   8    4973, make ikpt,npw=  22    4973
- newkpt: read input wf with ikpt,npw=   6    5000, make ikpt,npw=  23    5000
- newkpt: read input wf with ikpt,npw=   3    4998, make ikpt,npw=  24    4998
- newkpt: read input wf with ikpt,npw=   4    4986, make ikpt,npw=  25    4986
- newkpt: read input wf with ikpt,npw=   7    4987, make ikpt,npw=  26    4987
- newkpt: read input wf with ikpt,npw=   9    4983, make ikpt,npw=  27    4983
- newkpt: read input wf with ikpt,npw=  10    4989, make ikpt,npw=  28    4989
- newkpt: read input wf with ikpt,npw=  10    4989, make ikpt,npw=  29    4989
- newkpt: read input wf with ikpt,npw=   9    4983, make ikpt,npw=  30    4983
- newkpt: read input wf with ikpt,npw=   7    4987, make ikpt,npw=  31    4987
- newkpt: read input wf with ikpt,npw=   4    4986, make ikpt,npw=  32    4986
- newkpt: read input wf with ikpt,npw=   4    4986, make ikpt,npw=  33    4986
- newkpt: read input wf with ikpt,npw=   7    4987, make ikpt,npw=  34    4987
- newkpt: read input wf with ikpt,npw=   9    4983, make ikpt,npw=  35    4983
- newkpt: read input wf with ikpt,npw=  10    4989, make ikpt,npw=  36    4989
- newkpt: read input wf with ikpt,npw=  10    4989, make ikpt,npw=  37    4989
- newkpt: read input wf with ikpt,npw=   9    4983, make ikpt,npw=  38    4983
- newkpt: read input wf with ikpt,npw=   7    4987, make ikpt,npw=  39    4987
- newkpt: read input wf with ikpt,npw=   4    4986, make ikpt,npw=  40    4986
- newkpt: read input wf with ikpt,npw=   3    4998, make ikpt,npw=  41    4998
- newkpt: read input wf with ikpt,npw=   6    5000, make ikpt,npw=  42    5000
- newkpt: read input wf with ikpt,npw=   8    4973, make ikpt,npw=  43    4973
- newkpt: read input wf with ikpt,npw=   9    4983, make ikpt,npw=  44    4983
- newkpt: read input wf with ikpt,npw=   9    4983, make ikpt,npw=  45    4983
- newkpt: read input wf with ikpt,npw=   8    4973, make ikpt,npw=  46    4973
- newkpt: read input wf with ikpt,npw=   6    5000, make ikpt,npw=  47    5000
- newkpt: read input wf with ikpt,npw=   3    4998, make ikpt,npw=  48    4998
- newkpt: read input wf with ikpt,npw=   2    4976, make ikpt,npw=  49    4976
- newkpt: read input wf with ikpt,npw=   5    4985, make ikpt,npw=  50    4985
- newkpt : prtvol=0 or 1, do not print more k-points.
 

 ==>  initialize data related to q vector <==

 The list of irreducible perturbations for this q vector is:
    1)    idir= 1    ipert=   1
    2)    idir= 2    ipert=   1
    3)    idir= 1    ipert=   2
    4)    idir= 2    ipert=   2
    5)    idir= 1    ipert=   3
    6)    idir= 2    ipert=   3
    7)    idir= 1    ipert=   4
    8)    idir= 2    ipert=   4
    9)    idir= 3    ipert=   4

================================================================================

 The perturbation idir=   3  ipert=   1 is
 symmetric of a previously calculated perturbation.
 So, its SCF calculation is not needed.


 The perturbation idir=   3  ipert=   2 is
 symmetric of a previously calculated perturbation.
 So, its SCF calculation is not needed.


 The perturbation idir=   3  ipert=   3 is
 symmetric of a previously calculated perturbation.
 So, its SCF calculation is not needed.


 The perturbation idir=   1  ipert=   5 is
 symmetric of a previously calculated perturbation.
 So, its SCF calculation is not needed.


 The perturbation idir=   2  ipert=   5 is
 symmetric of a previously calculated perturbation.
 So, its SCF calculation is not needed.


 The perturbation idir=   3  ipert=   5 is
 symmetric of a previously calculated perturbation.
 So, its SCF calculation is not needed.


--------------------------------------------------------------------------------
 Perturbation wavevector (in red.coord.)   0.500000  0.250000  0.250000
 Perturbation : displacement of atom   1   along direction   1
 Found     2 symmetries that leave the perturbation invariant.
 symkpt : the number of k-points, thanks to the symmetries,
 is reduced to   288 .

--------------------------------------------------------------------------------

-inwffil : will read wavefunctions from disk file perovskite-Gamma_o_DS1_WFK
- newkpt: read input wf with ikpt,npw=   1    4996, make ikpt,npw=   1    4996
- newkpt: read input wf with ikpt,npw=   2    4976, make ikpt,npw=   2    4976
- newkpt: read input wf with ikpt,npw=   3    4998, make ikpt,npw=   3    4998
- newkpt: read input wf with ikpt,npw=   4    4986, make ikpt,npw=   4    4986
- newkpt: read input wf with ikpt,npw=   4    4986, make ikpt,npw=   5    4986
- newkpt: read input wf with ikpt,npw=   3    4998, make ikpt,npw=   6    4998
- newkpt: read input wf with ikpt,npw=   2    4976, make ikpt,npw=   7    4976
- newkpt: read input wf with ikpt,npw=   1    4996, make ikpt,npw=   8    4996
- newkpt: read input wf with ikpt,npw=   2    4976, make ikpt,npw=   9    4976
- newkpt: read input wf with ikpt,npw=   5    4985, make ikpt,npw=  10    4985
- newkpt: read input wf with ikpt,npw=   6    5000, make ikpt,npw=  11    5000
- newkpt: read input wf with ikpt,npw=   7    4987, make ikpt,npw=  12    4987
- newkpt: read input wf with ikpt,npw=   7    4987, make ikpt,npw=  13    4987
- newkpt: read input wf with ikpt,npw=   6    5000, make ikpt,npw=  14    5000
- newkpt: read input wf with ikpt,npw=   5    4985, make ikpt,npw=  15    4985
- newkpt: read input wf with ikpt,npw=   2    4976, make ikpt,npw=  16    4976
- newkpt: read input wf with ikpt,npw=   3    4998, make ikpt,npw=  17    4998
- newkpt: read input wf with ikpt,npw=   6    5000, make ikpt,npw=  18    5000
- newkpt: read input wf with ikpt,npw=   8    4973, make ikpt,npw=  19    4973
- newkpt: read input wf with ikpt,npw=   9    4983, make ikpt,npw=  20    4983
- newkpt: read input wf with ikpt,npw=   9    4983, make ikpt,npw=  21    4983
- newkpt: read input wf with ikpt,npw=   8    4973, make ikpt,npw=  22    4973
- newkpt: read input wf with ikpt,npw=   6    5000, make ikpt,npw=  23    5000
- newkpt: read input wf with ikpt,npw=   3    4998, make ikpt,npw=  24    4998
- newkpt: read input wf with ikpt,npw=   4    4986, make ikpt,npw=  25    4986
- newkpt: read input wf with ikpt,npw=   7    4987, make ikpt,npw=  26    4987
- newkpt: read input wf with ikpt,npw=   9    4983, make ikpt,npw=  27    4983
- newkpt: read input wf with ikpt,npw=  10    4989, make ikpt,npw=  28    4989
- newkpt: read input wf with ikpt,npw=  10    4989, make ikpt,npw=  29    4989
- newkpt: read input wf with ikpt,npw=   9    4983, make ikpt,npw=  30    4983
- newkpt: read input wf with ikpt,npw=   7    4987, make ikpt,npw=  31    4987
- newkpt: read input wf with ikpt,npw=   4    4986, make ikpt,npw=  32    4986
- newkpt: read input wf with ikpt,npw=   4    4986, make ikpt,npw=  33    4986
- newkpt: read input wf with ikpt,npw=   7    4987, make ikpt,npw=  34    4987
- newkpt: read input wf with ikpt,npw=   9    4983, make ikpt,npw=  35    4983
- newkpt: read input wf with ikpt,npw=  10    4989, make ikpt,npw=  36    4989
- newkpt: read input wf with ikpt,npw=  10    4989, make ikpt,npw=  37    4989
- newkpt: read input wf with ikpt,npw=   9    4983, make ikpt,npw=  38    4983
- newkpt: read input wf with ikpt,npw=   7    4987, make ikpt,npw=  39    4987
- newkpt: read input wf with ikpt,npw=   4    4986, make ikpt,npw=  40    4986
- newkpt: read input wf with ikpt,npw=   3    4998, make ikpt,npw=  41    4998
- newkpt: read input wf with ikpt,npw=   6    5000, make ikpt,npw=  42    5000
- newkpt: read input wf with ikpt,npw=   8    4973, make ikpt,npw=  43    4973
- newkpt: read input wf with ikpt,npw=   9    4983, make ikpt,npw=  44    4983
- newkpt: read input wf with ikpt,npw=   9    4983, make ikpt,npw=  45    4983
- newkpt: read input wf with ikpt,npw=   8    4973, make ikpt,npw=  46    4973
- newkpt: read input wf with ikpt,npw=   6    5000, make ikpt,npw=  47    5000
- newkpt: read input wf with ikpt,npw=   3    4998, make ikpt,npw=  48    4998
- newkpt: read input wf with ikpt,npw=   2    4976, make ikpt,npw=  49    4976
- newkpt: read input wf with ikpt,npw=   5    4985, make ikpt,npw=  50    4985
- newkpt : prtvol=0 or 1, do not print more k-points.
 
--------------------------------------------------------------------------------

-inwffil : will read wavefunctions from disk file perovskite-Gamma_o_DS1_WFK
- newkpt: read input wf with ikpt,npw=  18    4975, make ikpt,npw=   1    4975
- newkpt: read input wf with ikpt,npw=  17    4971, make ikpt,npw=   2    4971
- newkpt: read input wf with ikpt,npw=  14    4988, make ikpt,npw=   3    4988
- newkpt: read input wf with ikpt,npw=   8    4973, make ikpt,npw=   4    4973
- newkpt: read input wf with ikpt,npw=   8    4973, make ikpt,npw=   5    4973
- newkpt: read input wf with ikpt,npw=  14    4988, make ikpt,npw=   6    4988
- newkpt: read input wf with ikpt,npw=  17    4971, make ikpt,npw=   7    4971
- newkpt: read input wf with ikpt,npw=  18    4975, make ikpt,npw=   8    4975
- newkpt: read input wf with ikpt,npw=  19    4953, make ikpt,npw=   9    4953
- newkpt: read input wf with ikpt,npw=  18    4975, make ikpt,npw=  10    4975
- newkpt: read input wf with ikpt,npw=  15    4981, make ikpt,npw=  11    4981
- newkpt: read input wf with ikpt,npw=   9    4983, make ikpt,npw=  12    4983
- newkpt: read input wf with ikpt,npw=   9    4983, make ikpt,npw=  13    4983
- newkpt: read input wf with ikpt,npw=  15    4981, make ikpt,npw=  14    4981
- newkpt: read input wf with ikpt,npw=  18    4975, make ikpt,npw=  15    4975
- newkpt: read input wf with ikpt,npw=  19    4953, make ikpt,npw=  16    4953
- newkpt: read input wf with ikpt,npw=  19    4953, make ikpt,npw=  17    4953
- newkpt: read input wf with ikpt,npw=  18    4975, make ikpt,npw=  18    4975
- newkpt: read input wf with ikpt,npw=  15    4981, make ikpt,npw=  19    4981
- newkpt: read input wf with ikpt,npw=   9    4983, make ikpt,npw=  20    4983
- newkpt: read input wf with ikpt,npw=   9    4983, make ikpt,npw=  21    4983
- newkpt: read input wf with ikpt,npw=  15    4981, make ikpt,npw=  22    4981
- newkpt: read input wf with ikpt,npw=  18    4975, make ikpt,npw=  23    4975
- newkpt: read input wf with ikpt,npw=  19    4953, make ikpt,npw=  24    4953
- newkpt: read input wf with ikpt,npw=  18    4975, make ikpt,npw=  25    4975
- newkpt: read input wf with ikpt,npw=  17    4971, make ikpt,npw=  26    4971
- newkpt: read input wf with ikpt,npw=  14    4988, make ikpt,npw=  27    4988
- newkpt: read input wf with ikpt,npw=   8    4973, make ikpt,npw=  28    4973
- newkpt: read input wf with ikpt,npw=   8    4973, make ikpt,npw=  29    4973
- newkpt: read input wf with ikpt,npw=  14    4988, make ikpt,npw=  30    4988
- newkpt: read input wf with ikpt,npw=  17    4971, make ikpt,npw=  31    4971
- newkpt: read input wf with ikpt,npw=  18    4975, make ikpt,npw=  32    4975
- newkpt: read input wf with ikpt,npw=  15    4981, make ikpt,npw=  33    4981
- newkpt: read input wf with ikpt,npw=  14    4988, make ikpt,npw=  34    4988
- newkpt: read input wf with ikpt,npw=  12    4985, make ikpt,npw=  35    4985
- newkpt: read input wf with ikpt,npw=   6    5000, make ikpt,npw=  36    5000
- newkpt: read input wf with ikpt,npw=   6    5000, make ikpt,npw=  37    5000
- newkpt: read input wf with ikpt,npw=  12    4985, make ikpt,npw=  38    4985
- newkpt: read input wf with ikpt,npw=  14    4988, make ikpt,npw=  39    4988
- newkpt: read input wf with ikpt,npw=  15    4981, make ikpt,npw=  40    4981
- newkpt: read input wf with ikpt,npw=   9    4983, make ikpt,npw=  41    4983
- newkpt: read input wf with ikpt,npw=   8    4973, make ikpt,npw=  42    4973
- newkpt: read input wf with ikpt,npw=   6    5000, make ikpt,npw=  43    5000
- newkpt: read input wf with ikpt,npw=   3    4998, make ikpt,npw=  44    4998
- newkpt: read input wf with ikpt,npw=   3    4998, make ikpt,npw=  45    4998
- newkpt: read input wf with ikpt,npw=   6    5000, make ikpt,npw=  46    5000
- newkpt: read input wf with ikpt,npw=   8    4973, make ikpt,npw=  47    4973
- newkpt: read input wf with ikpt,npw=   9    4983, make ikpt,npw=  48    4983
- newkpt: read input wf with ikpt,npw=   9    4983, make ikpt,npw=  49    4983
- newkpt: read input wf with ikpt,npw=   8    4973, make ikpt,npw=  50    4973
- newkpt : prtvol=0 or 1, do not print more k-points.
 
 Initialisation of the first-order wave-functions :
  ireadwf=   0
P newkpt: treating     20 bands with npw=    4975 for ikpt=   1
P newkpt: treating     20 bands with npw=    4971 for ikpt=   2
P newkpt: treating     20 bands with npw=    4988 for ikpt=   3
P newkpt: treating     20 bands with npw=    4973 for ikpt=   4
P newkpt: treating     20 bands with npw=    4973 for ikpt=   5
P newkpt: treating     20 bands with npw=    4988 for ikpt=   6
P newkpt: treating     20 bands with npw=    4971 for ikpt=   7
P newkpt: treating     20 bands with npw=    4975 for ikpt=   8
P newkpt: treating     20 bands with npw=    4953 for ikpt=   9
P newkpt: treating     20 bands with npw=    4975 for ikpt=  10
P newkpt: treating     20 bands with npw=    4981 for ikpt=  11
P newkpt: treating     20 bands with npw=    4983 for ikpt=  12
P newkpt: treating     20 bands with npw=    4983 for ikpt=  13
P newkpt: treating     20 bands with npw=    4981 for ikpt=  14
P newkpt: treating     20 bands with npw=    4975 for ikpt=  15
P newkpt: treating     20 bands with npw=    4953 for ikpt=  16
P newkpt: treating     20 bands with npw=    4953 for ikpt=  17
P newkpt: treating     20 bands with npw=    4975 for ikpt=  18
P newkpt: treating     20 bands with npw=    4981 for ikpt=  19
P newkpt: treating     20 bands with npw=    4983 for ikpt=  20
P newkpt: treating     20 bands with npw=    4983 for ikpt=  21
P newkpt: treating     20 bands with npw=    4981 for ikpt=  22
P newkpt: treating     20 bands with npw=    4975 for ikpt=  23
P newkpt: treating     20 bands with npw=    4953 for ikpt=  24
P newkpt: treating     20 bands with npw=    4975 for ikpt=  25
P newkpt: treating     20 bands with npw=    4971 for ikpt=  26
P newkpt: treating     20 bands with npw=    4988 for ikpt=  27
P newkpt: treating     20 bands with npw=    4973 for ikpt=  28
P newkpt: treating     20 bands with npw=    4973 for ikpt=  29
P newkpt: treating     20 bands with npw=    4988 for ikpt=  30
P newkpt: treating     20 bands with npw=    4971 for ikpt=  31
P newkpt: treating     20 bands with npw=    4975 for ikpt=  32
P newkpt: treating     20 bands with npw=    4981 for ikpt=  33
P newkpt: treating     20 bands with npw=    4988 for ikpt=  34
P newkpt: treating     20 bands with npw=    4985 for ikpt=  35
P newkpt: treating     20 bands with npw=    5000 for ikpt=  36
P newkpt: treating     20 bands with npw=    5000 for ikpt=  37
P newkpt: treating     20 bands with npw=    4985 for ikpt=  38
P newkpt: treating     20 bands with npw=    4988 for ikpt=  39
P newkpt: treating     20 bands with npw=    4981 for ikpt=  40
P newkpt: treating     20 bands with npw=    4983 for ikpt=  41
P newkpt: treating     20 bands with npw=    4973 for ikpt=  42
P newkpt: treating     20 bands with npw=    5000 for ikpt=  43
P newkpt: treating     20 bands with npw=    4998 for ikpt=  44
P newkpt: treating     20 bands with npw=    4998 for ikpt=  45
P newkpt: treating     20 bands with npw=    5000 for ikpt=  46
P newkpt: treating     20 bands with npw=    4973 for ikpt=  47
P newkpt: treating     20 bands with npw=    4983 for ikpt=  48
P newkpt: treating     20 bands with npw=    4983 for ikpt=  49
P newkpt: treating     20 bands with npw=    4973 for ikpt=  50
  newkpt: prtvol=0 or 1, do not print more k-points.
 

     iter   2DEtotal(Ha)        deltaE(Ha) residm    vres2
-ETOT  1   1166.4021976317      1.767E+02 2.537E+01 1.388E+07
 ETOT  2   118.10620892650     -1.048E+03 2.378E+01 3.775E+05
 ETOT  3   51.595505287663     -6.651E+01 8.916E-01 1.155E+05
 ETOT  4   103.20448404713      5.161E+01 2.147E+00 3.877E+05
 ETOT  5   10.234920850516     -9.297E+01 1.423E+00 1.896E+04
 ETOT  6   8.6672323252392     -1.568E+00 5.613E-01 5.332E+03
 ETOT  7   7.8455764014386     -8.217E-01 4.258E-02 2.133E+03
 ETOT  8   7.4154933496930     -4.301E-01 1.229E-02 2.032E+03
 ETOT  9   7.4247819621644      9.289E-03 4.105E-03 3.265E+03
 ETOT 10   7.4209546317750     -3.827E-03 3.926E-03 2.328E+03
 ETOT 11   7.1463845794835     -2.746E-01 1.883E-02 3.458E+03
 ETOT 12   6.7725818542619     -3.738E-01 4.250E-03 1.213E+03
 ETOT 13   6.6993650969082     -7.322E-02 5.309E-03 7.375E+02
 ETOT 14   6.6978789761426     -1.486E-03 1.057E-04 8.109E+02
 ETOT 15   6.6984935802454      6.146E-04 9.720E-05 8.499E+02
 ETOT 16   6.6583694960668     -4.012E-02 4.970E-04 2.611E+02
 ETOT 17   6.6473573495923     -1.101E-02 4.785E-04 5.384E+01
 ETOT 18   6.6415669095513     -5.790E-03 3.876E-04 6.089E+00
 ETOT 19   6.6386560967210     -2.911E-03 6.439E-05 4.018E-01
 ETOT 20   6.6387164233442      6.033E-05 4.167E-05 2.118E+00
 ETOT 21   6.6386108609972     -1.056E-04 8.066E-06 1.672E+00
 ETOT 22   6.6386583295341      4.747E-05 1.049E-05 2.144E+00
 ETOT 23   6.6386608583975      2.529E-06 1.660E-06 2.180E+00
 ETOT 24   6.6387205276749      5.967E-05 2.071E-06 2.962E+00
 ETOT 25   6.6385519730145     -1.686E-04 2.201E-06 8.431E-01
 ETOT 26   6.6385743291301      2.236E-05 2.203E-07 1.179E+00
 ETOT 27   6.6385056943491     -6.863E-05 1.435E-06 2.412E-01
 ETOT 28   6.6384980657722     -7.629E-06 5.512E-07 1.259E-01
 ETOT 29   6.6384874554271     -1.061E-05 3.187E-07 1.945E-02
 ETOT 30   6.6384859198517     -1.536E-06 1.607E-07 1.296E-02
 ETOT 31   6.6384843543485     -1.566E-06 3.607E-08 5.307E-03
 ETOT 32   6.6384842365910     -1.178E-07 1.049E-08 3.990E-03
 ETOT 33   6.6384839602799     -2.763E-07 1.421E-08 6.641E-04
 ETOT 34   6.6384839330424     -2.724E-08 6.817E-09 2.367E-04
 ETOT 35   6.6384839131085     -1.993E-08 4.518E-09 1.763E-04
 ETOT 36   6.6384838725262     -4.058E-08 1.878E-09 4.530E-05
 ETOT 37   6.6384838726619      1.357E-10 9.368E-10 6.930E-05
 ETOT 38   6.6384838663851     -6.277E-09 3.163E-10 1.795E-05
 ETOT 39   6.6384838666113      2.262E-10 1.890E-10 1.127E-05
 ETOT 40   6.6384838665817     -2.956E-11 7.440E-11 1.589E-05
 ETOT 41   6.6384838651318     -1.450E-09 3.267E-11 1.918E-06
 ETOT 42   6.6384838649021     -2.296E-10 1.228E-11 4.268E-07
 ETOT 43   6.6384838648162     -8.595E-11 3.602E-12 8.791E-08
 ETOT 44   6.6384838648171      9.095E-13 3.170E-12 3.002E-08
 ETOT 45   6.6384838648078     -9.322E-12 8.583E-13 1.572E-08
 ETOT 46   6.6384838648257      1.796E-11 1.113E-12 1.025E-08
 ETOT 47   6.6384838648266      9.095E-13 2.108E-13 6.048E-09

 At SCF step   47       vres2   =  6.05E-09 < tolvrs=  1.00E-08 =>converged.
================================================================================

 ----iterations are completed or convergence reached----

 Mean square residual over all n,k,spin=   2.2821E-15; max=  2.1081E-13
   0.0625  0.0625  0.0625    1  4.72292E-15 kpt; spin; max resid(k); each band:
 2.79E-17 1.04E-16 6.70E-17 1.19E-16 2.92E-17 4.54E-17 1.76E-16 8.13E-17
 2.93E-17 6.60E-17 4.28E-17 6.48E-16 4.26E-16 5.64E-16 1.98E-15 1.39E-15
 3.34E-15 1.48E-15 3.84E-16 4.72E-15
   0.1875  0.0625  0.0625    1  7.43282E-15 kpt; spin; max resid(k); each band:
 2.95E-17 1.05E-16 1.21E-16 3.82E-17 2.97E-17 5.65E-17 1.65E-16 3.98E-17
 8.99E-17 1.64E-16 3.10E-17 2.66E-16 3.40E-16 3.09E-16 3.99E-16 1.25E-15
 7.43E-15 4.99E-15 6.68E-15 1.94E-16
   0.3125  0.0625  0.0625    1  1.20238E-14 kpt; spin; max resid(k); each band:
 3.25E-17 9.23E-17 3.83E-17 1.72E-16 2.58E-17 6.16E-17 1.66E-16 2.03E-17
 2.41E-17 1.10E-16 4.76E-17 2.80E-16 1.21E-15 2.72E-16 1.35E-15 5.21E-16
 1.49E-15 1.11E-14 1.20E-14 3.42E-16
   0.4375  0.0625  0.0625    1  1.15140E-14 kpt; spin; max resid(k); each band:
 3.68E-17 7.32E-17 2.06E-16 6.51E-17 1.63E-17 6.15E-17 8.23E-17 2.02E-17
 3.57E-17 1.01E-16 9.43E-17 3.31E-16 1.18E-15 3.01E-16 6.33E-16 5.05E-16
 1.15E-14 3.65E-15 7.63E-15 6.04E-16
  -0.4375  0.0625  0.0625    1  1.15140E-14 kpt; spin; max resid(k); each band:
 3.68E-17 7.32E-17 2.06E-16 6.51E-17 1.63E-17 6.15E-17 8.23E-17 2.02E-17
 3.57E-17 1.01E-16 9.43E-17 3.31E-16 1.18E-15 3.01E-16 6.33E-16 5.05E-16
 1.15E-14 3.66E-15 7.63E-15 6.04E-16
  -0.3125  0.0625  0.0625    1  1.20238E-14 kpt; spin; max resid(k); each band:
 3.25E-17 9.23E-17 3.83E-17 1.72E-16 2.58E-17 6.16E-17 1.66E-16 2.03E-17
 2.41E-17 1.10E-16 4.76E-17 2.80E-16 1.21E-15 2.72E-16 1.35E-15 5.21E-16
 1.49E-15 1.12E-14 1.20E-14 3.42E-16
  -0.1875  0.0625  0.0625    1  7.43264E-15 kpt; spin; max resid(k); each band:
 2.95E-17 1.05E-16 1.21E-16 3.82E-17 2.97E-17 5.65E-17 1.65E-16 3.98E-17
 8.99E-17 1.64E-16 3.10E-17 2.66E-16 3.40E-16 3.09E-16 3.99E-16 1.25E-15
 7.43E-15 4.99E-15 6.68E-15 1.94E-16
  -0.0625  0.0625  0.0625    1  4.72280E-15 kpt; spin; max resid(k); each band:
 2.79E-17 1.04E-16 6.70E-17 1.19E-16 2.92E-17 4.54E-17 1.76E-16 8.13E-17
 2.93E-17 6.60E-17 4.28E-17 6.48E-16 4.26E-16 5.64E-16 1.98E-15 1.39E-15
 3.34E-15 1.48E-15 3.84E-16 4.72E-15
   0.0625  0.1875  0.0625    1  2.17373E-15 kpt; spin; max resid(k); each band:
 2.97E-17 1.47E-16 8.02E-17 8.29E-17 2.63E-17 2.18E-16 1.23E-16 2.46E-16
 3.29E-17 4.58E-17 2.70E-17 6.85E-16 6.11E-16 4.50E-16 1.01E-15 6.95E-16
 1.33E-15 3.83E-16 1.02E-15 2.17E-15
   0.1875  0.1875  0.0625    1  1.06435E-14 kpt; spin; max resid(k); each band:
 3.04E-17 1.44E-16 1.10E-16 8.84E-17 2.59E-17 5.63E-17 5.44E-17 1.05E-16
 5.71E-17 5.06E-17 2.75E-17 6.78E-16 6.48E-16 5.88E-16 6.12E-16 1.28E-15
 2.92E-15 7.20E-15 1.17E-15 1.06E-14
   0.3125  0.1875  0.0625    1  2.53727E-14 kpt; spin; max resid(k); each band:
 3.40E-17 1.48E-16 1.14E-16 1.42E-16 2.26E-17 6.49E-17 3.21E-16 4.41E-17
 6.65E-17 7.94E-17 8.83E-17 3.51E-16 7.50E-16 9.43E-16 1.58E-15 1.14E-15
 5.13E-15 1.17E-14 1.44E-15 2.54E-14
   0.4375  0.1875  0.0625    1  2.61564E-14 kpt; spin; max resid(k); each band:
 3.46E-17 1.50E-16 1.41E-16 9.27E-17 3.12E-17 6.62E-17 2.98E-16 2.10E-17
 6.33E-17 1.29E-16 1.51E-16 2.69E-16 7.57E-16 8.95E-16 8.95E-16 1.37E-15
 2.62E-14 3.73E-15 1.06E-15 1.49E-14
  -0.4375  0.1875  0.0625    1  2.61565E-14 kpt; spin; max resid(k); each band:
 3.46E-17 1.50E-16 1.41E-16 9.27E-17 3.12E-17 6.62E-17 2.98E-16 2.10E-17
 6.33E-17 1.29E-16 1.51E-16 2.69E-16 7.57E-16 8.95E-16 8.95E-16 1.37E-15
 2.62E-14 3.73E-15 1.06E-15 1.49E-14
  -0.3125  0.1875  0.0625    1  2.53734E-14 kpt; spin; max resid(k); each band:
 3.40E-17 1.48E-16 1.14E-16 1.42E-16 2.26E-17 6.49E-17 3.21E-16 4.41E-17
 6.65E-17 7.94E-17 8.83E-17 3.51E-16 7.50E-16 9.43E-16 1.58E-15 1.14E-15
 5.13E-15 1.17E-14 1.44E-15 2.54E-14
  -0.1875  0.1875  0.0625    1  1.06433E-14 kpt; spin; max resid(k); each band:
 3.04E-17 1.44E-16 1.10E-16 8.84E-17 2.59E-17 5.63E-17 5.44E-17 1.05E-16
 5.71E-17 5.06E-17 2.75E-17 6.78E-16 6.48E-16 5.88E-16 6.12E-16 1.28E-15
 2.92E-15 7.20E-15 1.17E-15 1.06E-14
  -0.0625  0.1875  0.0625    1  2.17373E-15 kpt; spin; max resid(k); each band:
 2.97E-17 1.47E-16 8.02E-17 8.29E-17 2.63E-17 2.18E-16 1.23E-16 2.46E-16
 3.29E-17 4.58E-17 2.70E-17 6.85E-16 6.11E-16 4.50E-16 1.01E-15 6.95E-16
 1.33E-15 3.83E-16 1.02E-15 2.17E-15
   0.0625  0.3125  0.0625    1  1.77971E-15 kpt; spin; max resid(k); each band:
 2.83E-17 1.65E-16 1.45E-16 1.40E-16 2.84E-17 7.87E-17 5.25E-17 2.44E-16
 4.42E-17 3.04E-17 2.31E-17 1.20E-15 5.96E-16 5.37E-16 1.08E-15 8.56E-16
 1.78E-15 1.26E-15 7.68E-16 1.50E-15
   0.1875  0.3125  0.0625    1  3.23381E-15 kpt; spin; max resid(k); each band:
 2.94E-17 1.60E-16 1.06E-16 1.41E-16 3.04E-17 9.45E-17 1.21E-16 6.24E-17
 5.87E-17 1.42E-16 6.20E-17 1.25E-15 7.35E-16 5.79E-16 6.78E-16 1.24E-15
 1.76E-15 2.72E-15 1.83E-15 3.23E-15
   0.3125  0.3125  0.0625    1  1.91124E-14 kpt; spin; max resid(k); each band:
 3.14E-17 1.13E-16 1.06E-16 9.46E-17 2.40E-17 1.48E-16 3.61E-17 4.83E-17
 7.41E-17 6.40E-17 1.20E-16 5.53E-16 8.37E-16 7.99E-16 8.60E-16 9.32E-16
 3.78E-15 2.78E-15 1.42E-14 1.91E-14
   0.4375  0.3125  0.0625    1  1.99688E-14 kpt; spin; max resid(k); each band:
 3.43E-17 1.46E-16 1.45E-16 1.46E-16 3.54E-17 1.93E-16 4.89E-17 2.61E-17
 7.58E-17 1.25E-16 1.06E-16 2.94E-16 1.11E-15 1.14E-15 1.05E-15 1.41E-15
 1.48E-15 2.00E-14 6.06E-15 2.07E-15
  -0.4375  0.3125  0.0625    1  1.99688E-14 kpt; spin; max resid(k); each band:
 3.43E-17 1.46E-16 1.45E-16 1.46E-16 3.54E-17 1.93E-16 4.89E-17 2.61E-17
 7.58E-17 1.25E-16 1.06E-16 2.94E-16 1.11E-15 1.14E-15 1.05E-15 1.41E-15
 1.48E-15 2.00E-14 6.06E-15 2.18E-15
  -0.3125  0.3125  0.0625    1  1.91103E-14 kpt; spin; max resid(k); each band:
 3.14E-17 1.13E-16 1.06E-16 9.47E-17 2.40E-17 1.48E-16 3.61E-17 4.83E-17
 7.41E-17 6.40E-17 1.20E-16 5.53E-16 8.37E-16 7.99E-16 8.60E-16 9.32E-16
 3.78E-15 2.78E-15 1.42E-14 1.91E-14
  -0.1875  0.3125  0.0625    1  3.23356E-15 kpt; spin; max resid(k); each band:
 2.94E-17 1.60E-16 1.06E-16 1.41E-16 3.04E-17 9.45E-17 1.21E-16 6.24E-17
 5.87E-17 1.42E-16 6.20E-17 1.25E-15 7.35E-16 5.79E-16 6.78E-16 1.24E-15
 1.76E-15 2.72E-15 1.83E-15 3.23E-15
  -0.0625  0.3125  0.0625    1  1.77971E-15 kpt; spin; max resid(k); each band:
 2.83E-17 1.65E-16 1.45E-16 1.40E-16 2.84E-17 7.87E-17 5.25E-17 2.44E-16
 4.42E-17 3.04E-17 2.31E-17 1.20E-15 5.96E-16 5.37E-16 1.08E-15 8.56E-16
 1.78E-15 1.26E-15 7.68E-16 1.50E-15
   0.0625  0.4375  0.0625    1  2.24762E-15 kpt; spin; max resid(k); each band:
 2.84E-17 1.68E-16 1.38E-16 1.44E-16 3.04E-17 6.63E-17 1.34E-16 3.03E-16
 4.81E-17 3.01E-17 2.82E-17 1.07E-15 5.87E-16 3.51E-16 8.38E-16 1.15E-15
 2.25E-15 1.21E-15 1.03E-15 6.91E-16
   0.1875  0.4375  0.0625    1  4.79595E-15 kpt; spin; max resid(k); each band:
 2.99E-17 1.71E-16 1.49E-16 9.03E-17 3.05E-17 2.21E-16 1.39E-16 7.00E-17
 7.88E-17 3.55E-17 1.06E-16 1.01E-15 7.47E-16 6.47E-16 5.02E-16 8.96E-16
 2.62E-15 6.62E-16 4.00E-15 4.80E-15
   0.3125  0.4375  0.0625    1  2.95070E-14 kpt; spin; max resid(k); each band:
 3.24E-17 1.15E-16 1.49E-16 8.50E-17 2.51E-17 8.47E-17 8.61E-17 6.11E-17
 1.01E-16 9.20E-17 6.62E-17 9.80E-16 7.01E-16 4.93E-16 6.76E-16 1.34E-15
 1.45E-15 4.04E-15 1.98E-14 2.95E-14
   0.4375  0.4375  0.0625    1  3.06273E-14 kpt; spin; max resid(k); each band:
 3.53E-17 1.69E-16 1.66E-16 9.80E-17 1.89E-17 1.25E-16 4.32E-17 3.98E-17
 1.12E-16 1.34E-16 6.63E-17 4.62E-16 9.91E-16 8.15E-16 1.19E-15 1.16E-15
 1.24E-15 1.57E-14 2.09E-14 3.06E-14
  -0.4375  0.4375  0.0625    1  3.06270E-14 kpt; spin; max resid(k); each band:
 3.53E-17 1.69E-16 1.66E-16 9.80E-17 1.89E-17 1.25E-16 4.32E-17 3.98E-17
 1.12E-16 1.34E-16 6.63E-17 4.62E-16 9.91E-16 8.15E-16 1.19E-15 1.16E-15
 1.24E-15 1.57E-14 2.09E-14 3.06E-14
  -0.3125  0.4375  0.0625    1  2.95067E-14 kpt; spin; max resid(k); each band:
 3.24E-17 1.15E-16 1.49E-16 8.50E-17 2.51E-17 8.47E-17 8.61E-17 6.11E-17
 1.01E-16 9.20E-17 6.62E-17 9.80E-16 7.01E-16 4.93E-16 6.76E-16 1.34E-15
 1.45E-15 4.04E-15 1.98E-14 2.95E-14
  -0.1875  0.4375  0.0625    1  4.79534E-15 kpt; spin; max resid(k); each band:
 2.99E-17 1.71E-16 1.49E-16 9.03E-17 3.05E-17 2.21E-16 1.39E-16 7.00E-17
 7.88E-17 3.55E-17 1.06E-16 1.01E-15 7.47E-16 6.47E-16 5.02E-16 8.96E-16
 2.62E-15 6.62E-16 4.00E-15 4.80E-15
  -0.0625  0.4375  0.0625    1  2.24761E-15 kpt; spin; max resid(k); each band:
 2.84E-17 1.68E-16 1.38E-16 1.45E-16 3.04E-17 6.63E-17 1.34E-16 3.03E-16
 4.81E-17 3.01E-17 2.82E-17 1.07E-15 5.87E-16 3.51E-16 8.38E-16 1.15E-15
 2.25E-15 1.21E-15 1.03E-15 6.91E-16
   0.0625 -0.4375  0.0625    1  3.34910E-15 kpt; spin; max resid(k); each band:
 6.06E-17 1.47E-16 9.98E-17 1.62E-16 1.47E-17 4.33E-17 1.28E-16 2.86E-16
 5.04E-17 4.84E-17 7.09E-17 7.58E-16 8.67E-16 5.85E-16 1.01E-15 2.17E-15
 3.35E-15 1.83E-15 9.85E-16 1.15E-15
   0.1875 -0.4375  0.0625    1  5.11548E-15 kpt; spin; max resid(k); each band:
 3.16E-17 1.71E-16 1.55E-16 8.25E-17 3.13E-17 4.90E-17 5.15E-17 1.39E-16
 1.17E-16 9.75E-17 5.31E-17 7.19E-16 6.81E-16 3.76E-16 5.82E-16 7.53E-16
 5.12E-15 2.07E-15 4.00E-15 3.93E-15
   0.3125 -0.4375  0.0625    1  1.02061E-14 kpt; spin; max resid(k); each band:
 3.65E-17 1.81E-16 1.58E-16 1.01E-16 2.84E-17 6.88E-17 4.61E-17 1.44E-16
 1.56E-16 7.89E-17 9.80E-17 6.68E-16 7.40E-16 3.21E-16 7.37E-16 1.18E-15
 1.03E-15 1.02E-14 3.98E-15 3.67E-15
   0.4375 -0.4375  0.0625    1  2.48810E-14 kpt; spin; max resid(k); each band:
 4.29E-17 1.68E-16 1.70E-16 1.09E-16 1.85E-17 8.43E-17 6.45E-17 1.06E-16
 1.38E-16 1.10E-16 1.08E-16 4.15E-16 7.64E-16 5.92E-16 7.96E-16 8.85E-16
 1.14E-15 2.36E-14 2.49E-14 1.39E-14
  -0.4375 -0.4375  0.0625    1  2.48809E-14 kpt; spin; max resid(k); each band:
 4.29E-17 1.68E-16 1.70E-16 1.09E-16 1.85E-17 8.43E-17 6.45E-17 1.06E-16
 1.38E-16 1.10E-16 1.08E-16 4.15E-16 7.64E-16 5.92E-16 7.96E-16 8.85E-16
 1.14E-15 2.36E-14 2.49E-14 1.39E-14
  -0.3125 -0.4375  0.0625    1  1.02060E-14 kpt; spin; max resid(k); each band:
 3.65E-17 1.81E-16 1.58E-16 1.01E-16 2.84E-17 6.88E-17 4.61E-17 1.44E-16
 1.56E-16 7.89E-17 9.80E-17 6.65E-16 7.40E-16 3.21E-16 7.37E-16 1.18E-15
 1.03E-15 1.02E-14 3.98E-15 3.67E-15
  -0.1875 -0.4375  0.0625    1  5.11551E-15 kpt; spin; max resid(k); each band:
 3.16E-17 1.71E-16 1.55E-16 8.23E-17 3.13E-17 4.90E-17 5.16E-17 1.39E-16
 1.17E-16 9.75E-17 5.31E-17 7.19E-16 6.81E-16 3.76E-16 5.82E-16 7.53E-16
 5.12E-15 2.07E-15 4.00E-15 3.93E-15
  -0.0625 -0.4375  0.0625    1  3.34911E-15 kpt; spin; max resid(k); each band:
 6.06E-17 1.47E-16 9.98E-17 1.62E-16 1.47E-17 4.33E-17 1.28E-16 2.86E-16
 5.04E-17 4.84E-17 7.09E-17 7.58E-16 8.67E-16 5.85E-16 1.01E-15 2.17E-15
 3.35E-15 1.83E-15 9.85E-16 1.15E-15
   0.0625 -0.3125  0.0625    1  9.28203E-15 kpt; spin; max resid(k); each band:
 5.30E-17 1.69E-16 1.02E-16 9.70E-17 3.27E-17 3.83E-17 1.06E-16 3.00E-16
 5.46E-17 1.07E-16 1.00E-16 4.28E-16 1.05E-15 6.26E-16 1.08E-15 2.32E-15
 9.28E-15 5.42E-15 1.71E-15 6.48E-16
   0.1875 -0.3125  0.0625    1  1.87102E-14 kpt; spin; max resid(k); each band:
 3.04E-17 1.65E-16 1.19E-16 9.73E-17 2.94E-17 4.58E-17 6.54E-17 2.84E-16
 1.52E-16 6.93E-17 4.11E-17 4.46E-16 5.90E-16 5.38E-16 9.54E-16 1.40E-15
 7.84E-15 1.87E-14 2.17E-15 1.44E-15
   0.3125 -0.3125  0.0625    1  3.44889E-14 kpt; spin; max resid(k); each band:
 3.59E-17 1.65E-16 1.59E-16 1.19E-16 2.54E-17 5.92E-17 1.01E-16 1.64E-16
 1.49E-16 5.77E-17 1.05E-16 3.49E-16 3.90E-16 6.44E-16 7.15E-16 1.22E-15
 1.53E-15 3.45E-14 3.07E-14 1.46E-14
   0.4375 -0.3125  0.0625    1  4.52604E-14 kpt; spin; max resid(k); each band:
 4.74E-17 9.16E-17 1.70E-16 1.26E-16 2.58E-17 6.43E-17 3.05E-16 8.21E-17
 1.11E-16 1.39E-16 1.35E-16 3.80E-16 1.26E-15 5.96E-16 1.10E-15 1.03E-15
 1.57E-15 1.12E-14 4.53E-14 3.22E-15
  -0.4375 -0.3125  0.0625    1  4.52645E-14 kpt; spin; max resid(k); each band:
 4.74E-17 9.18E-17 1.70E-16 1.26E-16 2.58E-17 6.43E-17 3.06E-16 8.21E-17
 1.11E-16 1.39E-16 1.35E-16 3.80E-16 1.26E-15 5.96E-16 1.10E-15 1.03E-15
 1.57E-15 1.12E-14 4.53E-14 3.22E-15
  -0.3125 -0.3125  0.0625    1  3.44873E-14 kpt; spin; max resid(k); each band:
 3.59E-17 1.65E-16 1.59E-16 1.19E-16 2.54E-17 5.92E-17 1.01E-16 1.64E-16
 1.49E-16 5.77E-17 1.05E-16 3.49E-16 3.90E-16 6.44E-16 7.15E-16 1.22E-15
 1.53E-15 3.45E-14 3.07E-14 1.46E-14
  -0.1875 -0.3125  0.0625    1  1.87101E-14 kpt; spin; max resid(k); each band:
 3.04E-17 1.65E-16 1.19E-16 9.73E-17 2.94E-17 4.58E-17 6.54E-17 2.84E-16
 1.52E-16 6.93E-17 4.11E-17 4.46E-16 5.90E-16 5.38E-16 9.54E-16 1.40E-15
 7.84E-15 1.87E-14 2.17E-15 1.44E-15
  -0.0625 -0.3125  0.0625    1  9.28201E-15 kpt; spin; max resid(k); each band:
 5.30E-17 1.69E-16 1.02E-16 9.70E-17 3.27E-17 3.83E-17 1.06E-16 3.00E-16
 5.46E-17 1.07E-16 1.00E-16 4.28E-16 1.05E-15 6.26E-16 1.08E-15 2.32E-15
 9.28E-15 5.42E-15 1.71E-15 6.48E-16
   0.0625 -0.1875  0.0625    1  8.08283E-15 kpt; spin; max resid(k); each band:
 2.77E-17 1.42E-16 1.51E-16 1.04E-16 2.63E-17 2.10E-16 9.86E-17 3.26E-16
 1.10E-16 7.27E-17 9.42E-17 7.69E-16 7.46E-16 5.59E-16 2.09E-15 1.51E-15
 5.25E-15 8.08E-15 1.80E-15 2.89E-15
   0.1875 -0.1875  0.0625    1  2.13726E-14 kpt; spin; max resid(k); each band:
 3.05E-17 1.67E-16 1.44E-16 1.19E-16 3.63E-17 5.02E-17 1.26E-16 2.05E-16
 1.17E-16 8.80E-17 6.53E-17 5.20E-16 5.41E-16 4.58E-16 2.01E-15 9.71E-16
 5.61E-15 2.14E-14 1.31E-14 3.25E-15
 outwf : prtvol=0 or 1, do not print more k-points.


 Thirteen components of 2nd-order total energy (hartree) are
 1,2,3: 0th-order hamiltonian combined with 1st-order wavefunctions
     kin0=   8.42878166E+02 eigvalue=   3.97177474E+01  local=  -4.69228903E+02
 4,5,6: 1st-order hamiltonian combined with 1st and 0th-order wfs
 loc psp =   2.75436545E+02  Hartree=   2.84461456E+02     xc=  -6.99677380E+01
 note that "loc psp" includes a xc core correction that could be resolved
 7,8,9: eventually, occupation + non-local contributions
    edocc=   0.00000000E+00     enl0=   3.55156173E+02   enl1=  -2.24147033E+03
 1-9 gives the relaxation energy (to be shifted if some occ is /=2.0)
   erelax=  -9.83016888E+02
 10,11,12 Non-relaxation  contributions : frozen-wavefunctions and Ewald
 fr.local=  -4.05686417E+02 fr.nonlo=   1.12361517E+03  Ewald=   2.71726619E+02
 13,14 Frozen wf xc core corrections (1) and (2)
 frxc 1  =   0.00000000E+00  frxc 2 =   0.00000000E+00
 Resulting in :
 2DEtotal=    0.6638483865E+01 Ha. Also 2DEtotal=    0.180642332694E+03 eV
    (2DErelax=   -9.8301688810E+02 Ha. 2DEnonrelax=    9.8965537196E+02 Ha)
    (  non-var. 2DEtotal :    6.6384769146E+00 Ha)


--------------------------------------------------------------------------------
 Perturbation wavevector (in red.coord.)   0.500000  0.250000  0.250000
 Perturbation : displacement of atom   1   along direction   2
 The set of symmetries contains only one element for this perturbation.
 symkpt : not enough symmetry to change the number of k points.

--------------------------------------------------------------------------------

-inwffil : will read wavefunctions from disk file perovskite-Gamma_o_DS1_WFK
- newkpt: read input wf with ikpt,npw=   1    4996, make ikpt,npw=   1    4996
- newkpt: read input wf with ikpt,npw=   2    4976, make ikpt,npw=   2    4976
- newkpt: read input wf with ikpt,npw=   3    4998, make ikpt,npw=   3    4998
- newkpt: read input wf with ikpt,npw=   4    4986, make ikpt,npw=   4    4986
- newkpt: read input wf with ikpt,npw=   4    4986, make ikpt,npw=   5    4986
- newkpt: read input wf with ikpt,npw=   3    4998, make ikpt,npw=   6    4998
- newkpt: read input wf with ikpt,npw=   2    4976, make ikpt,npw=   7    4976
- newkpt: read input wf with ikpt,npw=   1    4996, make ikpt,npw=   8    4996
- newkpt: read input wf with ikpt,npw=   2    4976, make ikpt,npw=   9    4976
- newkpt: read input wf with ikpt,npw=   5    4985, make ikpt,npw=  10    4985
- newkpt: read input wf with ikpt,npw=   6    5000, make ikpt,npw=  11    5000
- newkpt: read input wf with ikpt,npw=   7    4987, make ikpt,npw=  12    4987
- newkpt: read input wf with ikpt,npw=   7    4987, make ikpt,npw=  13    4987
- newkpt: read input wf with ikpt,npw=   6    5000, make ikpt,npw=  14    5000
- newkpt: read input wf with ikpt,npw=   5    4985, make ikpt,npw=  15    4985
- newkpt: read input wf with ikpt,npw=   2    4976, make ikpt,npw=  16    4976
- newkpt: read input wf with ikpt,npw=   3    4998, make ikpt,npw=  17    4998
- newkpt: read input wf with ikpt,npw=   6    5000, make ikpt,npw=  18    5000
- newkpt: read input wf with ikpt,npw=   8    4973, make ikpt,npw=  19    4973
- newkpt: read input wf with ikpt,npw=   9    4983, make ikpt,npw=  20    4983
- newkpt: read input wf with ikpt,npw=   9    4983, make ikpt,npw=  21    4983
- newkpt: read input wf with ikpt,npw=   8    4973, make ikpt,npw=  22    4973
- newkpt: read input wf with ikpt,npw=   6    5000, make ikpt,npw=  23    5000
- newkpt: read input wf with ikpt,npw=   3    4998, make ikpt,npw=  24    4998
- newkpt: read input wf with ikpt,npw=   4    4986, make ikpt,npw=  25    4986
- newkpt: read input wf with ikpt,npw=   7    4987, make ikpt,npw=  26    4987
- newkpt: read input wf with ikpt,npw=   9    4983, make ikpt,npw=  27    4983
- newkpt: read input wf with ikpt,npw=  10    4989, make ikpt,npw=  28    4989
- newkpt: read input wf with ikpt,npw=  10    4989, make ikpt,npw=  29    4989
- newkpt: read input wf with ikpt,npw=   9    4983, make ikpt,npw=  30    4983
- newkpt: read input wf with ikpt,npw=   7    4987, make ikpt,npw=  31    4987
- newkpt: read input wf with ikpt,npw=   4    4986, make ikpt,npw=  32    4986
- newkpt: read input wf with ikpt,npw=   4    4986, make ikpt,npw=  33    4986
- newkpt: read input wf with ikpt,npw=   7    4987, make ikpt,npw=  34    4987
- newkpt: read input wf with ikpt,npw=   9    4983, make ikpt,npw=  35    4983
- newkpt: read input wf with ikpt,npw=  10    4989, make ikpt,npw=  36    4989
- newkpt: read input wf with ikpt,npw=  10    4989, make ikpt,npw=  37    4989
- newkpt: read input wf with ikpt,npw=   9    4983, make ikpt,npw=  38    4983
- newkpt: read input wf with ikpt,npw=   7    4987, make ikpt,npw=  39    4987
- newkpt: read input wf with ikpt,npw=   4    4986, make ikpt,npw=  40    4986
- newkpt: read input wf with ikpt,npw=   3    4998, make ikpt,npw=  41    4998
- newkpt: read input wf with ikpt,npw=   6    5000, make ikpt,npw=  42    5000
- newkpt: read input wf with ikpt,npw=   8    4973, make ikpt,npw=  43    4973
- newkpt: read input wf with ikpt,npw=   9    4983, make ikpt,npw=  44    4983
- newkpt: read input wf with ikpt,npw=   9    4983, make ikpt,npw=  45    4983
- newkpt: read input wf with ikpt,npw=   8    4973, make ikpt,npw=  46    4973
- newkpt: read input wf with ikpt,npw=   6    5000, make ikpt,npw=  47    5000
- newkpt: read input wf with ikpt,npw=   3    4998, make ikpt,npw=  48    4998
- newkpt: read input wf with ikpt,npw=   2    4976, make ikpt,npw=  49    4976
- newkpt: read input wf with ikpt,npw=   5    4985, make ikpt,npw=  50    4985
- newkpt : prtvol=0 or 1, do not print more k-points.
 
--------------------------------------------------------------------------------

-inwffil : will read wavefunctions from disk file perovskite-Gamma_o_DS1_WFK
- newkpt: read input wf with ikpt,npw=  18    4975, make ikpt,npw=   1    4975
- newkpt: read input wf with ikpt,npw=  17    4971, make ikpt,npw=   2    4971
- newkpt: read input wf with ikpt,npw=  14    4988, make ikpt,npw=   3    4988
- newkpt: read input wf with ikpt,npw=   8    4973, make ikpt,npw=   4    4973
- newkpt: read input wf with ikpt,npw=   8    4973, make ikpt,npw=   5    4973
- newkpt: read input wf with ikpt,npw=  14    4988, make ikpt,npw=   6    4988
- newkpt: read input wf with ikpt,npw=  17    4971, make ikpt,npw=   7    4971
- newkpt: read input wf with ikpt,npw=  18    4975, make ikpt,npw=   8    4975
- newkpt: read input wf with ikpt,npw=  19    4953, make ikpt,npw=   9    4953
- newkpt: read input wf with ikpt,npw=  18    4975, make ikpt,npw=  10    4975
- newkpt: read input wf with ikpt,npw=  15    4981, make ikpt,npw=  11    4981
- newkpt: read input wf with ikpt,npw=   9    4983, make ikpt,npw=  12    4983
- newkpt: read input wf with ikpt,npw=   9    4983, make ikpt,npw=  13    4983
- newkpt: read input wf with ikpt,npw=  15    4981, make ikpt,npw=  14    4981
- newkpt: read input wf with ikpt,npw=  18    4975, make ikpt,npw=  15    4975
- newkpt: read input wf with ikpt,npw=  19    4953, make ikpt,npw=  16    4953
- newkpt: read input wf with ikpt,npw=  19    4953, make ikpt,npw=  17    4953
- newkpt: read input wf with ikpt,npw=  18    4975, make ikpt,npw=  18    4975
- newkpt: read input wf with ikpt,npw=  15    4981, make ikpt,npw=  19    4981
- newkpt: read input wf with ikpt,npw=   9    4983, make ikpt,npw=  20    4983
- newkpt: read input wf with ikpt,npw=   9    4983, make ikpt,npw=  21    4983
- newkpt: read input wf with ikpt,npw=  15    4981, make ikpt,npw=  22    4981
- newkpt: read input wf with ikpt,npw=  18    4975, make ikpt,npw=  23    4975
- newkpt: read input wf with ikpt,npw=  19    4953, make ikpt,npw=  24    4953
- newkpt: read input wf with ikpt,npw=  18    4975, make ikpt,npw=  25    4975
- newkpt: read input wf with ikpt,npw=  17    4971, make ikpt,npw=  26    4971
- newkpt: read input wf with ikpt,npw=  14    4988, make ikpt,npw=  27    4988
- newkpt: read input wf with ikpt,npw=   8    4973, make ikpt,npw=  28    4973
- newkpt: read input wf with ikpt,npw=   8    4973, make ikpt,npw=  29    4973
- newkpt: read input wf with ikpt,npw=  14    4988, make ikpt,npw=  30    4988
- newkpt: read input wf with ikpt,npw=  17    4971, make ikpt,npw=  31    4971
- newkpt: read input wf with ikpt,npw=  18    4975, make ikpt,npw=  32    4975
- newkpt: read input wf with ikpt,npw=  15    4981, make ikpt,npw=  33    4981
- newkpt: read input wf with ikpt,npw=  14    4988, make ikpt,npw=  34    4988
- newkpt: read input wf with ikpt,npw=  12    4985, make ikpt,npw=  35    4985
- newkpt: read input wf with ikpt,npw=   6    5000, make ikpt,npw=  36    5000
- newkpt: read input wf with ikpt,npw=   6    5000, make ikpt,npw=  37    5000
- newkpt: read input wf with ikpt,npw=  12    4985, make ikpt,npw=  38    4985
- newkpt: read input wf with ikpt,npw=  14    4988, make ikpt,npw=  39    4988
- newkpt: read input wf with ikpt,npw=  15    4981, make ikpt,npw=  40    4981
- newkpt: read input wf with ikpt,npw=   9    4983, make ikpt,npw=  41    4983
- newkpt: read input wf with ikpt,npw=   8    4973, make ikpt,npw=  42    4973
- newkpt: read input wf with ikpt,npw=   6    5000, make ikpt,npw=  43    5000
- newkpt: read input wf with ikpt,npw=   3    4998, make ikpt,npw=  44    4998
- newkpt: read input wf with ikpt,npw=   3    4998, make ikpt,npw=  45    4998
- newkpt: read input wf with ikpt,npw=   6    5000, make ikpt,npw=  46    5000
- newkpt: read input wf with ikpt,npw=   8    4973, make ikpt,npw=  47    4973
- newkpt: read input wf with ikpt,npw=   9    4983, make ikpt,npw=  48    4983
- newkpt: read input wf with ikpt,npw=   9    4983, make ikpt,npw=  49    4983
- newkpt: read input wf with ikpt,npw=   8    4973, make ikpt,npw=  50    4973
- newkpt : prtvol=0 or 1, do not print more k-points.
 
 Initialisation of the first-order wave-functions :
  ireadwf=   0
P newkpt: treating     20 bands with npw=    4975 for ikpt=   1
P newkpt: treating     20 bands with npw=    4971 for ikpt=   2
P newkpt: treating     20 bands with npw=    4988 for ikpt=   3
P newkpt: treating     20 bands with npw=    4973 for ikpt=   4
P newkpt: treating     20 bands with npw=    4973 for ikpt=   5
P newkpt: treating     20 bands with npw=    4988 for ikpt=   6
P newkpt: treating     20 bands with npw=    4971 for ikpt=   7
P newkpt: treating     20 bands with npw=    4975 for ikpt=   8
P newkpt: treating     20 bands with npw=    4953 for ikpt=   9
P newkpt: treating     20 bands with npw=    4975 for ikpt=  10
P newkpt: treating     20 bands with npw=    4981 for ikpt=  11
P newkpt: treating     20 bands with npw=    4983 for ikpt=  12
P newkpt: treating     20 bands with npw=    4983 for ikpt=  13
P newkpt: treating     20 bands with npw=    4981 for ikpt=  14
P newkpt: treating     20 bands with npw=    4975 for ikpt=  15
P newkpt: treating     20 bands with npw=    4953 for ikpt=  16
P newkpt: treating     20 bands with npw=    4953 for ikpt=  17
P newkpt: treating     20 bands with npw=    4975 for ikpt=  18
P newkpt: treating     20 bands with npw=    4981 for ikpt=  19
P newkpt: treating     20 bands with npw=    4983 for ikpt=  20
P newkpt: treating     20 bands with npw=    4983 for ikpt=  21
P newkpt: treating     20 bands with npw=    4981 for ikpt=  22
P newkpt: treating     20 bands with npw=    4975 for ikpt=  23
P newkpt: treating     20 bands with npw=    4953 for ikpt=  24
P newkpt: treating     20 bands with npw=    4975 for ikpt=  25
P newkpt: treating     20 bands with npw=    4971 for ikpt=  26
P newkpt: treating     20 bands with npw=    4988 for ikpt=  27
P newkpt: treating     20 bands with npw=    4973 for ikpt=  28
P newkpt: treating     20 bands with npw=    4973 for ikpt=  29
P newkpt: treating     20 bands with npw=    4988 for ikpt=  30
P newkpt: treating     20 bands with npw=    4971 for ikpt=  31
P newkpt: treating     20 bands with npw=    4975 for ikpt=  32
P newkpt: treating     20 bands with npw=    4981 for ikpt=  33
P newkpt: treating     20 bands with npw=    4988 for ikpt=  34
P newkpt: treating     20 bands with npw=    4985 for ikpt=  35
P newkpt: treating     20 bands with npw=    5000 for ikpt=  36
P newkpt: treating     20 bands with npw=    5000 for ikpt=  37
P newkpt: treating     20 bands with npw=    4985 for ikpt=  38
P newkpt: treating     20 bands with npw=    4988 for ikpt=  39
P newkpt: treating     20 bands with npw=    4981 for ikpt=  40
P newkpt: treating     20 bands with npw=    4983 for ikpt=  41
P newkpt: treating     20 bands with npw=    4973 for ikpt=  42
P newkpt: treating     20 bands with npw=    5000 for ikpt=  43
P newkpt: treating     20 bands with npw=    4998 for ikpt=  44
P newkpt: treating     20 bands with npw=    4998 for ikpt=  45
P newkpt: treating     20 bands with npw=    5000 for ikpt=  46
P newkpt: treating     20 bands with npw=    4973 for ikpt=  47
P newkpt: treating     20 bands with npw=    4983 for ikpt=  48
P newkpt: treating     20 bands with npw=    4983 for ikpt=  49
P newkpt: treating     20 bands with npw=    4973 for ikpt=  50
  newkpt: prtvol=0 or 1, do not print more k-points.
 

     iter   2DEtotal(Ha)        deltaE(Ha) residm    vres2
-ETOT  1   486.24739029379     -4.335E+02 7.623E+00 4.332E+06
 ETOT  2   99.211562890202     -3.870E+02 1.014E+00 9.539E+05
 ETOT  3   21.356606540609     -7.785E+01 1.685E+00 3.826E+04
 ETOT  4   7.6036141520208     -1.375E+01 2.716E-01 2.997E+04
 ETOT  5   5.7818226600048     -1.822E+00 2.123E-02 8.783E+03
 ETOT  6   5.1264196257739     -6.554E-01 5.460E-02 7.968E+02
 ETOT  7   5.0839846767190     -4.243E-02 6.325E-03 6.510E+02
 ETOT  8   5.0554476785189     -2.854E-02 4.068E-03 2.802E+02
 ETOT  9   5.0212104368268     -3.424E-02 7.301E-04 2.200E+02
 ETOT 10   5.0236368678347      2.426E-03 2.773E-04 1.088E+02
 ETOT 11   5.0191178069429     -4.519E-03 2.696E-04 1.335E+02
 ETOT 12   5.0074412909944     -1.168E-02 5.552E-04 3.667E+01
 ETOT 13   5.0045693257737     -2.872E-03 9.939E-05 9.540E+00
 ETOT 14   5.0035286535597     -1.041E-03 7.089E-05 1.247E+00
 ETOT 15   5.0032129829040     -3.157E-04 1.412E-05 6.479E-01
 ETOT 16   5.0031555410694     -5.744E-05 1.368E-05 1.027E-01
 ETOT 17   5.0031416218987     -1.392E-05 3.323E-06 8.903E-03
 ETOT 18   5.0031389940355     -2.628E-06 3.209E-06 1.882E-03
 ETOT 19   5.0031376470233     -1.347E-06 7.261E-07 3.227E-03
 ETOT 20   5.0031366477488     -9.993E-07 7.935E-07 5.807E-04
 ETOT 21   5.0031363553578     -2.924E-07 2.077E-07 3.266E-04
 ETOT 22   5.0031363829266      2.757E-08 2.117E-07 4.530E-04
 ETOT 23   5.0031362106756     -1.723E-07 5.476E-08 1.449E-04
 ETOT 24   5.0031361562194     -5.446E-08 6.936E-08 7.999E-05
 ETOT 25   5.0031361354397     -2.078E-08 1.400E-08 1.844E-05
 ETOT 26   5.0031361290255     -6.414E-09 1.655E-08 3.571E-06
 ETOT 27   5.0031361268716     -2.154E-09 4.014E-09 1.509E-06
 ETOT 28   5.0031361257604     -1.111E-09 4.321E-09 4.478E-07
 ETOT 29   5.0031361252518     -5.086E-10 1.201E-09 1.339E-07
 ETOT 30   5.0031361249949     -2.569E-10 1.177E-09 9.235E-08
 ETOT 31   5.0031361248884     -1.064E-10 3.601E-10 3.788E-08
 ETOT 32   5.0031361248521     -3.638E-11 3.551E-10 5.842E-08
 ETOT 33   5.0031361247907     -6.139E-11 1.090E-10 3.313E-08
 ETOT 34   5.0031361247864     -4.320E-12 1.051E-10 2.430E-08
 ETOT 35   5.0031361247688     -1.751E-11 3.420E-11 2.726E-09

 At SCF step   35       vres2   =  2.73E-09 < tolvrs=  1.00E-08 =>converged.
================================================================================

 ----iterations are completed or convergence reached----

 Mean square residual over all n,k,spin=   8.1275E-14; max=  3.4204E-11
   0.0625  0.0625  0.0625    1  1.12033E-14 kpt; spin; max resid(k); each band:
 1.47E-16 4.20E-17 6.35E-17 4.54E-17 2.07E-16 5.24E-16 9.35E-17 4.47E-16
 1.38E-15 2.13E-16 2.42E-16 3.10E-15 1.42E-15 3.18E-15 2.40E-15 1.76E-15
 1.01E-15 1.12E-14 7.36E-16 7.39E-15
   0.1875  0.0625  0.0625    1  9.70885E-15 kpt; spin; max resid(k); each band:
 1.34E-16 1.18E-16 6.35E-17 5.62E-17 2.29E-16 3.60E-16 1.24E-16 4.65E-16
 2.69E-16 2.54E-16 1.81E-16 4.74E-15 1.83E-15 8.57E-16 4.38E-15 3.66E-15
 2.88E-15 9.71E-15 5.77E-15 9.39E-16
   0.3125  0.0625  0.0625    1  8.60906E-15 kpt; spin; max resid(k); each band:
 1.19E-16 1.12E-16 7.55E-17 3.51E-17 2.49E-16 2.06E-16 1.16E-16 3.47E-16
 1.35E-16 3.23E-16 1.36E-16 4.13E-15 2.76E-15 1.40E-15 5.82E-15 8.61E-15
 4.66E-15 3.72E-15 8.11E-15 2.50E-15
   0.4375  0.0625  0.0625    1  9.02883E-15 kpt; spin; max resid(k); each band:
 1.11E-16 6.83E-17 6.83E-17 5.41E-17 3.34E-16 3.75E-16 3.88E-16 3.40E-16
 1.46E-16 3.60E-16 2.64E-16 2.35E-15 3.42E-15 1.41E-15 4.59E-15 9.03E-15
 8.77E-15 2.71E-15 9.76E-16 1.98E-15
  -0.4375  0.0625  0.0625    1  9.02883E-15 kpt; spin; max resid(k); each band:
 1.11E-16 6.83E-17 6.83E-17 5.41E-17 3.34E-16 3.75E-16 3.88E-16 3.40E-16
 1.46E-16 3.60E-16 2.64E-16 2.35E-15 3.42E-15 1.41E-15 4.59E-15 9.03E-15
 8.77E-15 2.71E-15 9.76E-16 1.98E-15
  -0.3125  0.0625  0.0625    1  8.60906E-15 kpt; spin; max resid(k); each band:
 1.19E-16 1.12E-16 7.55E-17 3.51E-17 2.49E-16 2.06E-16 1.16E-16 3.47E-16
 1.35E-16 3.23E-16 1.36E-16 4.13E-15 2.76E-15 1.40E-15 5.82E-15 8.61E-15
 4.66E-15 3.72E-15 8.11E-15 2.50E-15
  -0.1875  0.0625  0.0625    1  9.70885E-15 kpt; spin; max resid(k); each band:
 1.34E-16 1.18E-16 6.35E-17 5.62E-17 2.29E-16 3.60E-16 1.24E-16 4.65E-16
 2.69E-16 2.54E-16 1.81E-16 4.74E-15 1.83E-15 8.57E-16 4.38E-15 3.66E-15
 2.88E-15 9.71E-15 5.77E-15 9.39E-16
  -0.0625  0.0625  0.0625    1  1.12034E-14 kpt; spin; max resid(k); each band:
 1.47E-16 4.20E-17 6.35E-17 4.54E-17 2.07E-16 5.24E-16 9.35E-17 4.47E-16
 1.38E-15 2.13E-16 2.42E-16 3.10E-15 1.42E-15 3.18E-15 2.40E-15 1.76E-15
 1.01E-15 1.12E-14 7.36E-16 7.39E-15
   0.0625  0.1875  0.0625    1  6.32938E-15 kpt; spin; max resid(k); each band:
 1.34E-16 5.98E-17 4.46E-17 4.62E-17 2.92E-16 5.62E-16 2.57E-16 3.26E-16
 1.49E-16 1.17E-15 3.49E-16 5.38E-16 3.67E-15 4.21E-15 2.27E-15 1.89E-15
 7.93E-16 3.34E-15 6.33E-15 3.37E-15
   0.1875  0.1875  0.0625    1  3.58435E-15 kpt; spin; max resid(k); each band:
 1.36E-16 9.22E-17 4.47E-17 1.01E-16 3.28E-16 1.08E-15 3.39E-16 1.51E-16
 2.91E-16 1.79E-16 2.72E-16 3.28E-15 1.74E-15 1.94E-15 2.01E-15 2.70E-15
 3.58E-15 2.92E-15 1.63E-15 3.16E-15
   0.3125  0.1875  0.0625    1  5.57416E-15 kpt; spin; max resid(k); each band:
 1.03E-16 3.54E-17 2.98E-17 7.77E-17 3.61E-16 1.92E-16 1.73E-16 3.80E-16
 2.84E-16 2.13E-16 2.44E-16 3.69E-15 7.83E-16 1.08E-15 2.66E-15 3.96E-15
 3.09E-15 5.57E-15 3.69E-15 5.19E-15
   0.4375  0.1875  0.0625    1  9.23410E-15 kpt; spin; max resid(k); each band:
 1.11E-16 3.50E-17 6.32E-17 6.67E-17 3.64E-16 3.56E-16 1.09E-16 1.14E-15
 2.53E-16 2.64E-16 2.18E-16 1.68E-15 1.40E-15 1.33E-15 2.97E-15 5.14E-15
 7.50E-15 2.76E-15 9.23E-15 3.35E-15
  -0.4375  0.1875  0.0625    1  9.23410E-15 kpt; spin; max resid(k); each band:
 1.11E-16 3.50E-17 6.32E-17 6.67E-17 3.64E-16 3.56E-16 1.09E-16 1.14E-15
 2.53E-16 2.64E-16 2.18E-16 1.68E-15 1.40E-15 1.33E-15 2.97E-15 5.14E-15
 7.50E-15 2.76E-15 9.23E-15 3.35E-15
  -0.3125  0.1875  0.0625    1  5.57416E-15 kpt; spin; max resid(k); each band:
 1.03E-16 3.54E-17 2.98E-17 7.77E-17 3.61E-16 1.92E-16 1.73E-16 3.80E-16
 2.84E-16 2.13E-16 2.44E-16 3.69E-15 7.83E-16 1.08E-15 2.66E-15 3.96E-15
 3.09E-15 5.57E-15 3.69E-15 5.19E-15
  -0.1875  0.1875  0.0625    1  3.58435E-15 kpt; spin; max resid(k); each band:
 1.36E-16 9.22E-17 4.47E-17 1.01E-16 3.28E-16 1.08E-15 3.39E-16 1.51E-16
 2.91E-16 1.79E-16 2.72E-16 3.28E-15 1.74E-15 1.94E-15 2.01E-15 2.70E-15
 3.58E-15 2.92E-15 1.63E-15 3.16E-15
  -0.0625  0.1875  0.0625    1  6.32938E-15 kpt; spin; max resid(k); each band:
 1.34E-16 5.98E-17 4.46E-17 4.62E-17 2.92E-16 5.62E-16 2.57E-16 3.26E-16
 1.49E-16 1.17E-15 3.49E-16 5.38E-16 3.67E-15 4.21E-15 2.27E-15 1.89E-15
 7.93E-16 3.34E-15 6.33E-15 3.37E-15
   0.0625  0.3125  0.0625    1  5.58249E-15 kpt; spin; max resid(k); each band:
 1.55E-16 5.87E-17 8.34E-17 7.81E-17 4.21E-16 7.36E-16 2.27E-16 2.54E-16
 1.61E-16 2.07E-16 4.53E-16 4.40E-16 4.39E-15 5.11E-15 7.33E-16 1.81E-15
 1.26E-15 2.23E-15 5.58E-15 5.58E-15
   0.1875  0.3125  0.0625    1  5.06133E-15 kpt; spin; max resid(k); each band:
 9.89E-17 6.67E-17 8.15E-17 6.12E-17 4.28E-16 1.33E-15 2.80E-16 4.71E-16
 2.86E-16 2.01E-16 3.83E-16 1.26E-15 3.64E-15 5.06E-15 2.02E-15 1.66E-15
 2.15E-15 2.03E-15 2.57E-15 3.30E-15
   0.3125  0.3125  0.0625    1  8.78830E-15 kpt; spin; max resid(k); each band:
 1.02E-16 1.37E-16 1.20E-16 6.24E-17 4.31E-16 9.15E-16 3.81E-16 2.53E-16
 3.29E-16 1.82E-16 3.34E-16 1.52E-15 1.97E-15 1.35E-15 2.32E-15 2.77E-15
 1.85E-15 4.48E-15 3.04E-15 8.79E-15
   0.4375  0.3125  0.0625    1  2.40897E-14 kpt; spin; max resid(k); each band:
 1.10E-16 7.63E-17 6.98E-17 6.36E-17 4.41E-16 3.05E-16 1.75E-16 3.24E-16
 3.76E-16 2.16E-16 3.20E-16 1.47E-15 1.24E-15 4.21E-16 2.93E-15 3.92E-15
 6.57E-16 3.12E-15 2.67E-15 2.41E-14
  -0.4375  0.3125  0.0625    1  2.40897E-14 kpt; spin; max resid(k); each band:
 1.10E-16 7.63E-17 6.98E-17 6.36E-17 4.41E-16 3.05E-16 1.75E-16 3.24E-16
 3.76E-16 2.16E-16 3.20E-16 1.47E-15 1.24E-15 4.21E-16 2.93E-15 3.92E-15
 6.57E-16 3.12E-15 2.67E-15 2.41E-14
  -0.3125  0.3125  0.0625    1  8.78830E-15 kpt; spin; max resid(k); each band:
 1.02E-16 1.37E-16 1.20E-16 6.24E-17 4.31E-16 9.15E-16 3.81E-16 2.53E-16
 3.29E-16 1.82E-16 3.34E-16 1.52E-15 1.97E-15 1.35E-15 2.32E-15 2.77E-15
 1.85E-15 4.48E-15 3.04E-15 8.79E-15
  -0.1875  0.3125  0.0625    1  5.06133E-15 kpt; spin; max resid(k); each band:
 9.89E-17 6.67E-17 8.15E-17 6.12E-17 4.28E-16 1.33E-15 2.80E-16 4.71E-16
 2.86E-16 2.01E-16 3.83E-16 1.26E-15 3.64E-15 5.06E-15 2.02E-15 1.66E-15
 2.15E-15 2.03E-15 2.57E-15 3.30E-15
  -0.0625  0.3125  0.0625    1  5.58249E-15 kpt; spin; max resid(k); each band:
 1.55E-16 5.87E-17 8.34E-17 7.81E-17 4.21E-16 7.36E-16 2.27E-16 2.54E-16
 1.61E-16 2.07E-16 4.53E-16 4.40E-16 4.39E-15 5.11E-15 7.33E-16 1.81E-15
 1.26E-15 2.23E-15 5.58E-15 5.58E-15
   0.0625  0.4375  0.0625    1  6.74778E-15 kpt; spin; max resid(k); each band:
 1.07E-16 3.18E-17 4.27E-17 4.53E-17 5.21E-16 6.25E-16 2.63E-16 3.32E-16
 1.68E-16 1.48E-16 5.44E-16 3.88E-16 4.08E-15 3.35E-15 8.05E-16 7.17E-16
 1.32E-15 1.43E-15 6.75E-15 4.31E-15
   0.1875  0.4375  0.0625    1  6.86244E-15 kpt; spin; max resid(k); each band:
 1.05E-16 2.77E-17 8.39E-17 3.84E-17 5.05E-16 4.55E-16 2.73E-16 1.97E-16
 2.11E-16 2.36E-16 5.06E-16 5.70E-16 2.20E-15 5.19E-15 2.46E-15 9.92E-16
 1.32E-15 3.07E-15 3.86E-15 6.86E-15
   0.3125  0.4375  0.0625    1  3.91504E-14 kpt; spin; max resid(k); each band:
 1.04E-16 2.81E-17 9.80E-17 6.64E-17 4.77E-16 6.03E-16 6.27E-16 3.31E-16
 2.35E-16 3.36E-15 2.67E-16 1.06E-15 1.83E-15 2.85E-15 2.00E-15 1.89E-15
 1.94E-15 2.38E-15 3.08E-15 3.92E-14
   0.4375  0.4375  0.0625    1  8.05557E-14 kpt; spin; max resid(k); each band:
 1.06E-16 9.08E-17 8.21E-17 6.41E-17 4.58E-16 2.22E-16 9.33E-16 8.60E-16
 1.22E-15 2.39E-15 2.61E-16 1.32E-15 2.29E-15 7.02E-16 2.27E-15 2.34E-15
 1.71E-15 8.84E-15 7.45E-15 8.06E-14
  -0.4375  0.4375  0.0625    1  8.05557E-14 kpt; spin; max resid(k); each band:
 1.06E-16 9.08E-17 8.21E-17 6.41E-17 4.58E-16 2.22E-16 9.33E-16 8.60E-16
 1.22E-15 2.39E-15 2.61E-16 1.32E-15 2.29E-15 7.02E-16 2.27E-15 2.34E-15
 1.71E-15 8.84E-15 7.45E-15 8.06E-14
  -0.3125  0.4375  0.0625    1  3.91504E-14 kpt; spin; max resid(k); each band:
 1.04E-16 2.81E-17 9.80E-17 6.64E-17 4.77E-16 6.03E-16 6.27E-16 3.31E-16
 2.35E-16 3.36E-15 2.67E-16 1.06E-15 1.83E-15 2.85E-15 2.00E-15 1.89E-15
 1.94E-15 2.38E-15 3.08E-15 3.92E-14
  -0.1875  0.4375  0.0625    1  6.86244E-15 kpt; spin; max resid(k); each band:
 1.05E-16 2.77E-17 8.39E-17 3.84E-17 5.05E-16 4.55E-16 2.73E-16 1.97E-16
 2.11E-16 2.36E-16 5.06E-16 5.70E-16 2.20E-15 5.19E-15 2.46E-15 9.92E-16
 1.32E-15 3.07E-15 3.86E-15 6.86E-15
  -0.0625  0.4375  0.0625    1  6.74778E-15 kpt; spin; max resid(k); each band:
 1.07E-16 3.18E-17 4.27E-17 4.53E-17 5.21E-16 6.25E-16 2.63E-16 3.32E-16
 1.68E-16 1.48E-16 5.44E-16 3.88E-16 4.08E-15 3.35E-15 8.05E-16 7.17E-16
 1.32E-15 1.43E-15 6.75E-15 4.30E-15
   0.0625 -0.4375  0.0625    1  6.03536E-15 kpt; spin; max resid(k); each band:
 1.33E-16 3.14E-17 4.36E-17 4.20E-17 5.41E-16 1.01E-15 2.89E-16 1.39E-16
 1.83E-16 1.91E-16 2.20E-15 4.79E-16 3.64E-15 4.56E-15 2.12E-15 1.95E-15
 1.18E-15 1.98E-15 5.87E-15 6.04E-15
   0.1875 -0.4375  0.0625    1  7.58291E-15 kpt; spin; max resid(k); each band:
 1.28E-16 3.18E-17 9.44E-17 1.25E-16 4.99E-16 7.35E-16 1.62E-16 1.42E-16
 1.28E-15 4.07E-16 2.54E-15 7.22E-16 2.46E-15 9.97E-16 2.06E-15 6.92E-16
 2.57E-15 5.33E-15 7.58E-15 6.70E-15
   0.3125 -0.4375  0.0625    1  9.50551E-14 kpt; spin; max resid(k); each band:
 1.14E-16 9.42E-17 1.15E-16 3.86E-17 4.24E-16 3.95E-16 4.97E-16 2.50E-16
 3.15E-16 4.37E-15 1.99E-16 1.09E-15 1.25E-15 9.86E-16 1.34E-15 1.13E-15
 1.32E-15 1.62E-14 3.67E-14 9.51E-14
   0.4375 -0.4375  0.0625    1  1.59605E-12 kpt; spin; max resid(k); each band:
 1.06E-16 5.45E-17 9.90E-17 9.09E-17 3.75E-16 1.79E-16 5.83E-16 4.03E-16
 3.66E-16 6.88E-16 2.36E-16 1.57E-15 7.19E-16 1.08E-15 1.20E-15 2.81E-15
 3.56E-15 1.32E-14 3.03E-13 1.60E-12
  -0.4375 -0.4375  0.0625    1  1.59605E-12 kpt; spin; max resid(k); each band:
 1.06E-16 5.45E-17 9.90E-17 9.09E-17 3.75E-16 1.79E-16 5.83E-16 4.03E-16
 3.66E-16 6.88E-16 2.36E-16 1.57E-15 7.19E-16 1.08E-15 1.20E-15 2.81E-15
 3.56E-15 1.32E-14 3.03E-13 1.60E-12
  -0.3125 -0.4375  0.0625    1  9.50551E-14 kpt; spin; max resid(k); each band:
 1.14E-16 9.42E-17 1.15E-16 3.86E-17 4.24E-16 3.95E-16 4.97E-16 2.50E-16
 3.15E-16 4.37E-15 1.99E-16 1.09E-15 1.25E-15 9.86E-16 1.34E-15 1.13E-15
 1.32E-15 1.62E-14 3.67E-14 9.51E-14
  -0.1875 -0.4375  0.0625    1  7.58291E-15 kpt; spin; max resid(k); each band:
 1.28E-16 3.18E-17 9.44E-17 1.25E-16 4.99E-16 7.35E-16 1.62E-16 1.42E-16
 1.28E-15 4.07E-16 2.54E-15 7.22E-16 2.46E-15 9.97E-16 2.06E-15 6.92E-16
 2.57E-15 5.33E-15 7.58E-15 6.70E-15
  -0.0625 -0.4375  0.0625    1  6.03536E-15 kpt; spin; max resid(k); each band:
 1.33E-16 3.14E-17 4.36E-17 4.20E-17 5.41E-16 1.01E-15 2.89E-16 1.39E-16
 1.83E-16 1.91E-16 2.20E-15 4.79E-16 3.64E-15 4.56E-15 2.12E-15 1.95E-15
 1.18E-15 1.98E-15 5.87E-15 6.04E-15
   0.0625 -0.3125  0.0625    1  8.34884E-15 kpt; spin; max resid(k); each band:
 1.61E-16 4.84E-17 4.22E-17 4.36E-17 4.64E-16 8.75E-16 2.36E-16 4.17E-16
 1.98E-16 2.58E-16 3.80E-16 1.16E-15 3.18E-15 3.73E-15 1.17E-15 1.80E-15
 1.28E-15 4.81E-15 5.35E-15 8.35E-15
   0.1875 -0.3125  0.0625    1  7.44595E-15 kpt; spin; max resid(k); each band:
 1.47E-16 5.00E-17 4.89E-17 6.65E-17 4.22E-16 7.28E-16 4.48E-16 3.26E-16
 8.68E-16 3.65E-16 2.41E-15 1.52E-15 3.99E-15 3.33E-15 1.46E-15 1.13E-15
 7.02E-15 6.33E-15 4.26E-15 7.45E-15
   0.3125 -0.3125  0.0625    1  1.91161E-13 kpt; spin; max resid(k); each band:
 1.25E-16 1.42E-16 6.83E-17 3.96E-17 2.17E-16 4.61E-16 2.94E-16 2.17E-16
 5.25E-16 4.03E-16 3.47E-16 2.77E-15 3.17E-15 1.56E-15 1.08E-15 3.31E-15
 7.77E-15 1.72E-14 6.03E-14 1.91E-13
   0.4375 -0.3125  0.0625    1  6.13280E-12 kpt; spin; max resid(k); each band:
 1.10E-16 7.27E-17 4.98E-17 9.68E-17 2.36E-16 2.42E-16 3.22E-16 4.47E-16
 3.88E-15 7.77E-16 1.33E-15 1.96E-15 1.72E-15 1.10E-15 1.33E-15 4.55E-15
 4.25E-15 4.70E-13 5.45E-13 6.13E-12
  -0.4375 -0.3125  0.0625    1  6.13280E-12 kpt; spin; max resid(k); each band:
 1.10E-16 7.27E-17 4.98E-17 9.68E-17 2.36E-16 2.42E-16 3.22E-16 4.47E-16
 3.88E-15 7.77E-16 1.33E-15 1.96E-15 1.72E-15 1.10E-15 1.33E-15 4.55E-15
 4.25E-15 4.70E-13 5.45E-13 6.13E-12
  -0.3125 -0.3125  0.0625    1  1.91161E-13 kpt; spin; max resid(k); each band:
 1.25E-16 1.42E-16 6.83E-17 3.96E-17 2.17E-16 4.61E-16 2.94E-16 2.17E-16
 5.25E-16 4.03E-16 3.47E-16 2.77E-15 3.17E-15 1.56E-15 1.08E-15 3.31E-15
 7.77E-15 1.72E-14 6.03E-14 1.91E-13
  -0.1875 -0.3125  0.0625    1  7.44595E-15 kpt; spin; max resid(k); each band:
 1.47E-16 5.00E-17 4.89E-17 6.65E-17 4.22E-16 7.28E-16 4.48E-16 3.26E-16
 8.68E-16 3.65E-16 2.41E-15 1.52E-15 3.99E-15 3.33E-15 1.46E-15 1.13E-15
 7.02E-15 6.33E-15 4.26E-15 7.45E-15
  -0.0625 -0.3125  0.0625    1  8.34884E-15 kpt; spin; max resid(k); each band:
 1.61E-16 4.84E-17 4.22E-17 4.36E-17 4.64E-16 8.75E-16 2.36E-16 4.17E-16
 1.98E-16 2.58E-16 3.80E-16 1.16E-15 3.18E-15 3.73E-15 1.17E-15 1.80E-15
 1.28E-15 4.81E-15 5.35E-15 8.35E-15
   0.0625 -0.1875  0.0625    1  8.78960E-15 kpt; spin; max resid(k); each band:
 1.12E-16 7.44E-17 1.01E-16 4.25E-17 2.92E-16 5.20E-16 4.24E-16 3.50E-16
 2.46E-16 1.38E-15 1.78E-16 2.03E-15 2.36E-15 4.03E-15 1.64E-15 3.25E-15
 1.21E-15 6.64E-15 7.13E-15 8.79E-15
   0.1875 -0.1875  0.0625    1  1.16039E-14 kpt; spin; max resid(k); each band:
 1.52E-16 6.97E-17 4.18E-17 7.05E-17 2.61E-16 3.54E-16 6.12E-16 1.67E-16
 2.13E-16 2.67E-16 1.67E-16 4.23E-15 2.04E-15 9.69E-16 2.84E-15 3.23E-15
 1.16E-14 1.03E-14 3.43E-15 8.58E-15
 outwf : prtvol=0 or 1, do not print more k-points.


 Thirteen components of 2nd-order total energy (hartree) are
 1,2,3: 0th-order hamiltonian combined with 1st-order wavefunctions
     kin0=   8.24847044E+02 eigvalue=   3.97664296E+01  local=  -4.57228671E+02
 4,5,6: 1st-order hamiltonian combined with 1st and 0th-order wfs
 loc psp =   4.09739608E+02  Hartree=   2.21909301E+02     xc=  -6.86131098E+01
 note that "loc psp" includes a xc core correction that could be resolved
 7,8,9: eventually, occupation + non-local contributions
    edocc=   0.00000000E+00     enl0=   3.54031622E+02   enl1=  -2.23916484E+03
 1-9 gives the relaxation energy (to be shifted if some occ is /=2.0)
   erelax=  -9.14712618E+02
 10,11,12 Non-relaxation  contributions : frozen-wavefunctions and Ewald
 fr.local=  -4.05686417E+02 fr.nonlo=   1.12361517E+03  Ewald=   2.01787002E+02
 13,14 Frozen wf xc core corrections (1) and (2)
 frxc 1  =   0.00000000E+00  frxc 2 =   0.00000000E+00
 Resulting in :
 2DEtotal=    0.5003136125E+01 Ha. Also 2DEtotal=    0.136142257595E+03 eV
    (2DErelax=   -9.1471261836E+02 Ha. 2DEnonrelax=    9.1971575449E+02 Ha)
    (  non-var. 2DEtotal :    5.0031373093E+00 Ha)


--------------------------------------------------------------------------------
 Perturbation wavevector (in red.coord.)   0.500000  0.250000  0.250000
 Perturbation : displacement of atom   2   along direction   1
 Found     2 symmetries that leave the perturbation invariant.
 symkpt : the number of k-points, thanks to the symmetries,
 is reduced to   288 .

--------------------------------------------------------------------------------

-inwffil : will read wavefunctions from disk file perovskite-Gamma_o_DS1_WFK
- newkpt: read input wf with ikpt,npw=   1    4996, make ikpt,npw=   1    4996
- newkpt: read input wf with ikpt,npw=   2    4976, make ikpt,npw=   2    4976
- newkpt: read input wf with ikpt,npw=   3    4998, make ikpt,npw=   3    4998
- newkpt: read input wf with ikpt,npw=   4    4986, make ikpt,npw=   4    4986
- newkpt: read input wf with ikpt,npw=   4    4986, make ikpt,npw=   5    4986
- newkpt: read input wf with ikpt,npw=   3    4998, make ikpt,npw=   6    4998
- newkpt: read input wf with ikpt,npw=   2    4976, make ikpt,npw=   7    4976
- newkpt: read input wf with ikpt,npw=   1    4996, make ikpt,npw=   8    4996
- newkpt: read input wf with ikpt,npw=   2    4976, make ikpt,npw=   9    4976
- newkpt: read input wf with ikpt,npw=   5    4985, make ikpt,npw=  10    4985
- newkpt: read input wf with ikpt,npw=   6    5000, make ikpt,npw=  11    5000
- newkpt: read input wf with ikpt,npw=   7    4987, make ikpt,npw=  12    4987
- newkpt: read input wf with ikpt,npw=   7    4987, make ikpt,npw=  13    4987
- newkpt: read input wf with ikpt,npw=   6    5000, make ikpt,npw=  14    5000
- newkpt: read input wf with ikpt,npw=   5    4985, make ikpt,npw=  15    4985
- newkpt: read input wf with ikpt,npw=   2    4976, make ikpt,npw=  16    4976
- newkpt: read input wf with ikpt,npw=   3    4998, make ikpt,npw=  17    4998
[...]
   3    2   2    1         0.0000000000         0.0000000000
   3    2   3    1         0.0000000000         0.0000000000
   3    2   1    2         0.0000000000         0.0000000000
   3    2   2    2         0.0305382437         0.0000000000
   3    2   3    2         0.1746844807         0.0000000000
   3    2   1    3         0.0000000000        -0.0519555590
   3    2   2    3         0.0000000000         0.0000000000
   3    2   3    3         0.0000000000         0.0000000000
   3    2   1    4         0.0000000000         0.0000000000
   3    2   2    4        -0.0266305378        -0.0266305378
   3    2   3    4        -0.0150726036        -0.0150726036
   3    2   1    5         0.0000000000         0.0000000000
   3    2   2    5        -0.0011172241        -0.0011172241
   3    2   3    5        -0.0077016620        -0.0077016620
  
   1    3   1    1         0.0000000000        -0.0253629306
   1    3   2    1         0.0000000000         0.0000000000
   1    3   3    1         0.0000000000         0.0000000000
   1    3   1    2         0.0000000000         0.0000000000
   1    3   2    2         0.0000000000         0.0519555234
   1    3   3    2         0.0000000000         0.0519555590
   1    3   1    3         0.2293971680         0.0000000000
   1    3   2    3         0.0000000000         0.0000000000
   1    3   3    3         0.0000000000         0.0000000000
   1    3   1    4         0.0000000000         0.0000000000
   1    3   2    4         0.0550277852        -0.0550277852
   1    3   3    4         0.0022734775        -0.0022734775
   1    3   1    5         0.0000000000         0.0000000000
   1    3   2    5         0.0022734496        -0.0022734496
   1    3   3    5         0.0550277676        -0.0550277676
  
   2    3   1    1         0.0000000000         0.0000000000
   2    3   2    1         0.0000000000        -0.0053475606
   2    3   3    1         0.0000000000         0.0019164739
   2    3   1    2         0.0000000000         0.0022029531
   2    3   2    2         0.0000000000         0.0000000000
   2    3   3    2         0.0000000000         0.0000000000
   2    3   1    3         0.0000000000         0.0000000000
   2    3   2    3         0.0742688434         0.0000000000
   2    3   3    3         0.0055429380         0.0000000000
   2    3   1    4         0.0252736039        -0.0252736039
   2    3   2    4         0.0000000000         0.0000000000
   2    3   3    4         0.0000000000         0.0000000000
   2    3   1    5         0.0020099120        -0.0020099120
   2    3   2    5         0.0000000000         0.0000000000
   2    3   3    5         0.0000000000         0.0000000000
  
   3    3   1    1         0.0000000000         0.0000000000
   3    3   2    1         0.0000000000         0.0019164937
   3    3   3    1         0.0000000000        -0.0053475606
   3    3   1    2         0.0000000000         0.0022029531
   3    3   2    2         0.0000000000         0.0000000000
   3    3   3    2         0.0000000000         0.0000000000
   3    3   1    3         0.0000000000         0.0000000000
   3    3   2    3         0.0055429380         0.0000000000
   3    3   3    3         0.0742688434         0.0000000000
   3    3   1    4         0.0020100651        -0.0020100651
   3    3   2    4         0.0000000000         0.0000000000
   3    3   3    4         0.0000000000         0.0000000000
   3    3   1    5         0.0252736039        -0.0252736039
   3    3   2    5         0.0000000000         0.0000000000
   3    3   3    5         0.0000000000         0.0000000000
  
   1    4   1    1         0.0000000000         0.0000000000
   1    4   2    1         0.0031454770        -0.0031454770
   1    4   3    1         0.0007850257        -0.0007850257
   1    4   1    2        -0.0307423687         0.0307423687
   1    4   2    2         0.0000000000         0.0000000000
   1    4   3    2         0.0000000000         0.0000000000
   1    4   1    3         0.0000000000         0.0000000000
   1    4   2    3         0.0252735300         0.0252735300
   1    4   3    3         0.0020100651         0.0020100651
   1    4   1    4         0.0766050133         0.0000000000
   1    4   2    4         0.0000000000         0.0000000000
   1    4   3    4         0.0000000000         0.0000000000
   1    4   1    5         0.0095611292         0.0000000000
   1    4   2    5         0.0000000000         0.0000000000
   1    4   3    5         0.0000000000         0.0000000000
  
   2    4   1    1         0.0083628786        -0.0083628786
   2    4   2    1         0.0000000000         0.0000000000
   2    4   3    1         0.0000000000         0.0000000000
   2    4   1    2         0.0000000000         0.0000000000
   2    4   2    2        -0.0077014517         0.0077014517
   2    4   3    2        -0.0266305378         0.0266305378
   2    4   1    3         0.0550277676         0.0550277676
   2    4   2    3         0.0000000000         0.0000000000
   2    4   3    3         0.0000000000         0.0000000000
   2    4   1    4         0.0000000000         0.0000000000
   2    4   2    4         0.1588261360         0.0000000000
   2    4   3    4         0.0063125394         0.0000000000
   2    4   1    5         0.0000000000         0.0000000000
   2    4   2    5        -0.0215699492         0.0000000000
   2    4   3    5         0.0561642440         0.0000000000
  
   3    4   1    1        -0.0000658349         0.0000658349
   3    4   2    1         0.0000000000         0.0000000000
   3    4   3    1         0.0000000000         0.0000000000
   3    4   1    2         0.0000000000         0.0000000000
   3    4   2    2        -0.0011173389         0.0011173389
   3    4   3    2        -0.0150726036         0.0150726036
   3    4   1    3         0.0022734496         0.0022734496
   3    4   2    3         0.0000000000         0.0000000000
   3    4   3    3         0.0000000000         0.0000000000
   3    4   1    4         0.0000000000         0.0000000000
   3    4   2    4         0.0063124804         0.0000000000
   3    4   3    4         0.0697556533         0.0000000000
   3    4   1    5         0.0000000000         0.0000000000
   3    4   2    5         0.0233647321         0.0000000000
   3    4   3    5        -0.0215698136         0.0000000000
  
   1    5   1    1         0.0000000000         0.0000000000
   1    5   2    1         0.0007850813        -0.0007850813
   1    5   3    1         0.0031454770        -0.0031454770
   1    5   1    2        -0.0307423687         0.0307423687
   1    5   2    2         0.0000000000         0.0000000000
   1    5   3    2         0.0000000000         0.0000000000
   1    5   1    3         0.0000000000         0.0000000000
   1    5   2    3         0.0020099120         0.0020099120
   1    5   3    3         0.0252735300         0.0252735300
   1    5   1    4         0.0095611292         0.0000000000
   1    5   2    4         0.0000000000         0.0000000000
   1    5   3    4         0.0000000000         0.0000000000
   1    5   1    5         0.0766050133         0.0000000000
   1    5   2    5         0.0000000000         0.0000000000
   1    5   3    5         0.0000000000         0.0000000000
  
   2    5   1    1        -0.0000658349         0.0000658349
   2    5   2    1         0.0000000000         0.0000000000
   2    5   3    1         0.0000000000         0.0000000000
   2    5   1    2         0.0000000000         0.0000000000
   2    5   2    2        -0.0150725643         0.0150725643
   2    5   3    2        -0.0011173389         0.0011173389
   2    5   1    3         0.0022734496         0.0022734496
   2    5   2    3         0.0000000000         0.0000000000
   2    5   3    3         0.0000000000         0.0000000000
   2    5   1    4         0.0000000000         0.0000000000
   2    5   2    4        -0.0215699492         0.0000000000
   2    5   3    4         0.0233647321         0.0000000000
   2    5   1    5         0.0000000000         0.0000000000
   2    5   2    5         0.0697556533         0.0000000000
   2    5   3    5         0.0063124804         0.0000000000
  
   3    5   1    1         0.0083628786        -0.0083628786
   3    5   2    1         0.0000000000         0.0000000000
   3    5   3    1         0.0000000000         0.0000000000
   3    5   1    2         0.0000000000         0.0000000000
   3    5   2    2        -0.0266304597         0.0266304597
   3    5   3    2        -0.0077014517         0.0077014517
   3    5   1    3         0.0550277676         0.0550277676
   3    5   2    3         0.0000000000         0.0000000000
   3    5   3    3         0.0000000000         0.0000000000
   3    5   1    4         0.0000000000         0.0000000000
   3    5   2    4         0.0561642440         0.0000000000
   3    5   3    4        -0.0215698136         0.0000000000
   3    5   1    5         0.0000000000         0.0000000000
   3    5   2    5         0.0063125394         0.0000000000
   3    5   3    5         0.1588261360         0.0000000000
 
  Phonon wavevector (reduced coordinates) :  0.50000  0.25000  0.25000
 Phonon energies in Hartree :
   5.251496E-04  5.486597E-04  5.861555E-04  1.062619E-03  1.095599E-03
   1.118071E-03  1.245260E-03  1.413183E-03  1.733399E-03  1.777604E-03
   1.859710E-03  2.020485E-03  2.054134E-03  2.227090E-03  3.426007E-03
 Phonon frequencies in cm-1    :
-  1.152570E+02  1.204169E+02  1.286463E+02  2.332180E+02  2.404562E+02
-  2.453883E+02  2.733030E+02  3.101578E+02  3.804370E+02  3.901389E+02
-  4.081591E+02  4.434452E+02  4.508304E+02  4.887897E+02  7.519215E+02

== END DATASET(S) ==============================================================
================================================================================
  
 -outvars: echo values of variables after computation  --------
     acell    7.4434230817E+00  7.4434230817E+00  7.4434230817E+00 Bohr
       amu    1.37327000E+02  4.78800000E+01  1.59994000E+01
    diemac    9.00000000E+00
      ecut    4.00000000E+01 Hartree
    etotal1   3.8647869897E+00
     fcart1   0.0000000000E+00  0.0000000000E+00  0.0000000000E+00
              0.0000000000E+00  0.0000000000E+00  0.0000000000E+00
              0.0000000000E+00  0.0000000000E+00  0.0000000000E+00
              0.0000000000E+00  0.0000000000E+00  0.0000000000E+00
              0.0000000000E+00  0.0000000000E+00  0.0000000000E+00
    irdwfk         1
      iscf         5
       ixc         3
    jdtset      1
       kpt    6.25000000E-02  6.25000000E-02  6.25000000E-02
              1.87500000E-01  6.25000000E-02  6.25000000E-02
              3.12500000E-01  6.25000000E-02  6.25000000E-02
              4.37500000E-01  6.25000000E-02  6.25000000E-02
             -4.37500000E-01  6.25000000E-02  6.25000000E-02
             -3.12500000E-01  6.25000000E-02  6.25000000E-02
             -1.87500000E-01  6.25000000E-02  6.25000000E-02
             -6.25000000E-02  6.25000000E-02  6.25000000E-02
              6.25000000E-02  1.87500000E-01  6.25000000E-02
              1.87500000E-01  1.87500000E-01  6.25000000E-02
              3.12500000E-01  1.87500000E-01  6.25000000E-02
              4.37500000E-01  1.87500000E-01  6.25000000E-02
             -4.37500000E-01  1.87500000E-01  6.25000000E-02
             -3.12500000E-01  1.87500000E-01  6.25000000E-02
             -1.87500000E-01  1.87500000E-01  6.25000000E-02
             -6.25000000E-02  1.87500000E-01  6.25000000E-02
              6.25000000E-02  3.12500000E-01  6.25000000E-02
              1.87500000E-01  3.12500000E-01  6.25000000E-02
              3.12500000E-01  3.12500000E-01  6.25000000E-02
              4.37500000E-01  3.12500000E-01  6.25000000E-02
             -4.37500000E-01  3.12500000E-01  6.25000000E-02
             -3.12500000E-01  3.12500000E-01  6.25000000E-02
             -1.87500000E-01  3.12500000E-01  6.25000000E-02
             -6.25000000E-02  3.12500000E-01  6.25000000E-02
              6.25000000E-02  4.37500000E-01  6.25000000E-02
              1.87500000E-01  4.37500000E-01  6.25000000E-02
              3.12500000E-01  4.37500000E-01  6.25000000E-02
              4.37500000E-01  4.37500000E-01  6.25000000E-02
             -4.37500000E-01  4.37500000E-01  6.25000000E-02
             -3.12500000E-01  4.37500000E-01  6.25000000E-02
             -1.87500000E-01  4.37500000E-01  6.25000000E-02
             -6.25000000E-02  4.37500000E-01  6.25000000E-02
              6.25000000E-02 -4.37500000E-01  6.25000000E-02
              1.87500000E-01 -4.37500000E-01  6.25000000E-02
              3.12500000E-01 -4.37500000E-01  6.25000000E-02
              4.37500000E-01 -4.37500000E-01  6.25000000E-02
             -4.37500000E-01 -4.37500000E-01  6.25000000E-02
             -3.12500000E-01 -4.37500000E-01  6.25000000E-02
             -1.87500000E-01 -4.37500000E-01  6.25000000E-02
             -6.25000000E-02 -4.37500000E-01  6.25000000E-02
              6.25000000E-02 -3.12500000E-01  6.25000000E-02
              1.87500000E-01 -3.12500000E-01  6.25000000E-02
              3.12500000E-01 -3.12500000E-01  6.25000000E-02
              4.37500000E-01 -3.12500000E-01  6.25000000E-02
             -4.37500000E-01 -3.12500000E-01  6.25000000E-02
             -3.12500000E-01 -3.12500000E-01  6.25000000E-02
             -1.87500000E-01 -3.12500000E-01  6.25000000E-02
             -6.25000000E-02 -3.12500000E-01  6.25000000E-02
              6.25000000E-02 -1.87500000E-01  6.25000000E-02
              1.87500000E-01 -1.87500000E-01  6.25000000E-02
                       outvar1 : prtvol=0, do not print more k-points.
   kptrlen    5.95473847E+01
    kptopt         3
  kptrlatt    8  0  0   0  8  0   0  0  8
P    mkmem       512
P   mkqmem       512
P   mk1mem       512
     natom         5
     nband        20
    ndtset         1
     ngfft        45      45      45
      nkpt       512
      nqpt         1
     nstep        70
      nsym        48
    ntypat         3
       occ    2.000000  2.000000  2.000000  2.000000  2.000000  2.000000
              2.000000  2.000000  2.000000  2.000000  2.000000  2.000000
              2.000000  2.000000  2.000000  2.000000  2.000000  2.000000
              2.000000  2.000000
 optdriver         1
       qpt    5.00000000E-01  2.50000000E-01  2.50000000E-01
   rfatpol         1       5
     rfdir         1       1       1
    rfphon         1
    shiftk    5.00000000E-01  5.00000000E-01  5.00000000E-01
   spgroup       221
    strten1   0.0000000000E+00  0.0000000000E+00  0.0000000000E+00
              0.0000000000E+00  0.0000000000E+00  0.0000000000E+00
    symrel    1  0  0   0  1  0   0  0  1      -1  0  0   0 -1  0   0  0 -1
             -1  0  0   0  1  0   0  0 -1       1  0  0   0 -1  0   0  0  1
             -1  0  0   0 -1  0   0  0  1       1  0  0   0  1  0   0  0 -1
              1  0  0   0 -1  0   0  0 -1      -1  0  0   0  1  0   0  0  1
              0  1  0   1  0  0   0  0  1       0 -1  0  -1  0  0   0  0 -1
              0 -1  0   1  0  0   0  0 -1       0  1  0  -1  0  0   0  0  1
              0 -1  0  -1  0  0   0  0  1       0  1  0   1  0  0   0  0 -1
              0  1  0  -1  0  0   0  0 -1       0 -1  0   1  0  0   0  0  1
              0  0  1   1  0  0   0  1  0       0  0 -1  -1  0  0   0 -1  0
              0  0 -1   1  0  0   0 -1  0       0  0  1  -1  0  0   0  1  0
              0  0 -1  -1  0  0   0  1  0       0  0  1   1  0  0   0 -1  0
              0  0  1  -1  0  0   0 -1  0       0  0 -1   1  0  0   0  1  0
              1  0  0   0  0  1   0  1  0      -1  0  0   0  0 -1   0 -1  0
             -1  0  0   0  0  1   0 -1  0       1  0  0   0  0 -1   0  1  0
             -1  0  0   0  0 -1   0  1  0       1  0  0   0  0  1   0 -1  0
              1  0  0   0  0 -1   0 -1  0      -1  0  0   0  0  1   0  1  0
              0  1  0   0  0  1   1  0  0       0 -1  0   0  0 -1  -1  0  0
              0 -1  0   0  0  1  -1  0  0       0  1  0   0  0 -1   1  0  0
              0 -1  0   0  0 -1   1  0  0       0  1  0   0  0  1  -1  0  0
              0  1  0   0  0 -1  -1  0  0       0 -1  0   0  0  1   1  0  0
              0  0  1   0  1  0   1  0  0       0  0 -1   0 -1  0  -1  0  0
              0  0 -1   0  1  0  -1  0  0       0  0  1   0 -1  0   1  0  0
              0  0 -1   0 -1  0   1  0  0       0  0  1   0  1  0  -1  0  0
              0  0  1   0 -1  0  -1  0  0       0  0 -1   0  1  0   1  0  0
    tolvrs    1.00000000E-08
     typat    1  2  3  3  3
       wtk      0.00195    0.00195    0.00195    0.00195    0.00195    0.00195
                0.00195    0.00195    0.00195    0.00195    0.00195    0.00195
                0.00195    0.00195    0.00195    0.00195    0.00195    0.00195
                0.00195    0.00195    0.00195    0.00195    0.00195    0.00195
                0.00195    0.00195    0.00195    0.00195    0.00195    0.00195
                0.00195    0.00195    0.00195    0.00195    0.00195    0.00195
                0.00195    0.00195    0.00195    0.00195    0.00195    0.00195
                0.00195    0.00195    0.00195    0.00195    0.00195    0.00195
                0.00195    0.00195
                outvar1 : prtvol=0, do not print more k-points.
    xangst    0.0000000000E+00  0.0000000000E+00  0.0000000000E+00
              1.9694449244E+00  1.9694449244E+00  1.9694449244E+00
              0.0000000000E+00  1.9694449244E+00  1.9694449244E+00
              1.9694449244E+00  0.0000000000E+00  1.9694449244E+00
              1.9694449244E+00  1.9694449244E+00  0.0000000000E+00
     xcart    0.0000000000E+00  0.0000000000E+00  0.0000000000E+00
              3.7217115408E+00  3.7217115408E+00  3.7217115408E+00
              0.0000000000E+00  3.7217115408E+00  3.7217115408E+00
              3.7217115408E+00  0.0000000000E+00  3.7217115408E+00
              3.7217115408E+00  3.7217115408E+00  0.0000000000E+00
      xred    0.0000000000E+00  0.0000000000E+00  0.0000000000E+00
              5.0000000000E-01  5.0000000000E-01  5.0000000000E-01
              0.0000000000E+00  5.0000000000E-01  5.0000000000E-01
              5.0000000000E-01  0.0000000000E+00  5.0000000000E-01
              5.0000000000E-01  5.0000000000E-01  0.0000000000E+00
     znucl     56.00000   22.00000    8.00000

================================================================================

- Total cpu        time (s,m,h):     -21111.2     -351.85     -5.864
- Total wall clock time (s,m,h):     193636.8     3227.28     53.788

- For major independent code sections, cpu and wall times (sec),
- as well as % of the total time and number of calls 

- routine                 cpu     %       wall     %      number of calls 
-                                                          (-1=no count)
- fourwf(pot)       103222.196-488.9 103233.228  53.3       18477773
- projbd             19765.411 -93.6  19768.420  10.2       33848986
- fourwf(G->r)       19337.976 -91.6  19341.517  10.0        6178560
- nonlop(apply)      18970.935 -89.9  18973.320   9.8       15371213
- vtowfk3(contrib)   10878.581 -51.5  10879.089   5.6             -1
- cgwf3-O(npw)        5281.429 -25.0   5271.785   2.7             -1
- nonlop(forces)      3061.742 -14.5   3062.254   1.6        4287360
- vtowfk3 (3)         1951.870  -9.2   1951.969   1.0         153600
- getghc-other        1933.154  -9.2   1921.566   1.0             -1
- vtowfk3 (1)         1105.434  -5.2   1105.410   0.6         153600
- status           -206417.198 977.8   8330.712   4.3        2000257
- vtorho3-kpt loop -207425.195 982.5   7322.781   3.8            356
- 58   others          459.540  -2.2    459.696   0.2

- subtotal         -227874.1231079.4 201621.747 104.1

================================================================================

 Calculation completed.
.Delivered   55 WARNINGs and   0 COMMENTs to log file.
+Overall time at end (sec) : cpu=     -21111.2  wall=     193636.8
