
.Version 5.6.4  of ABINIT 
.(sequential version, prepared for a ia64_linux_intel10.1 computer) 

.Copyright (C) 1998-2008 ABINIT group . 
 ABINIT comes with ABSOLUTELY NO WARRANTY.
 It is free software, and you are welcome to redistribute it
 under certain conditions (GNU General Public License,
 see ~abinit/COPYING or http://www.gnu.org/copyleft/gpl.txt).

 ABINIT is a project of the Universite Catholique de Louvain,
 Corning Inc. and other collaborators, see ~abinit/doc/developers/contributors.txt .
 Please read ~abinit/doc/users/acknowledgments.html for suggested
 acknowledgments of the ABINIT effort.
 For more information, see http://www.abinit.org .

.Starting date : Thu 29 Jan 2009.
  
- input  file    -> perovskite-R.in
- output file    -> perovskite-R.out
- root for input  files -> perovskite-Gamma_o
- root for output files -> perovskite-R_o


 DATASET    1 : space group Pm -3 m (#221); Bravais cP (primitive cubic)
================================================================================
 Values of the parameters that define the memory need for DATASET  1 (RF).
   intxc =         0    iscf =         5 xclevel =         1  lmnmax =         4
   lnmax =         4   mband =        20  mffmem =         1   mgfft =        45
P  mkmem =       512  mkqmem =       512  mk1mem =       512 mpssoang=         3
     mpw =      5000  mqgrid =      3001   natom =         5    nfft =     91125
    nkpt =       512  nloalg =         4  nspden =         1 nspinor =         1
  nsppol =         1    nsym =        48  n1xccc =         0  ntypat =         3
  occopt =         1
================================================================================
P This job should need less than                    2447.534 Mbytes of memory.
  Rough estimation (10% accuracy) of disk space for files :
  WF disk file :    781.252 Mbytes ; DEN or POT disk file :      0.697 Mbytes.
================================================================================

 -outvars: echo values of preprocessed input variables --------
     acell    7.4434230817E+00  7.4434230817E+00  7.4434230817E+00 Bohr
       amu    1.37327000E+02  4.78800000E+01  1.59994000E+01
    diemac    9.00000000E+00
      ecut    4.00000000E+01 Hartree
    irdwfk         1
      iscf         5
       ixc         3
    jdtset      1
       kpt    6.25000000E-02  6.25000000E-02  6.25000000E-02
              1.87500000E-01  6.25000000E-02  6.25000000E-02
              3.12500000E-01  6.25000000E-02  6.25000000E-02
              4.37500000E-01  6.25000000E-02  6.25000000E-02
             -4.37500000E-01  6.25000000E-02  6.25000000E-02
             -3.12500000E-01  6.25000000E-02  6.25000000E-02
             -1.87500000E-01  6.25000000E-02  6.25000000E-02
             -6.25000000E-02  6.25000000E-02  6.25000000E-02
              6.25000000E-02  1.87500000E-01  6.25000000E-02
              1.87500000E-01  1.87500000E-01  6.25000000E-02
              3.12500000E-01  1.87500000E-01  6.25000000E-02
              4.37500000E-01  1.87500000E-01  6.25000000E-02
             -4.37500000E-01  1.87500000E-01  6.25000000E-02
             -3.12500000E-01  1.87500000E-01  6.25000000E-02
             -1.87500000E-01  1.87500000E-01  6.25000000E-02
             -6.25000000E-02  1.87500000E-01  6.25000000E-02
              6.25000000E-02  3.12500000E-01  6.25000000E-02
              1.87500000E-01  3.12500000E-01  6.25000000E-02
              3.12500000E-01  3.12500000E-01  6.25000000E-02
              4.37500000E-01  3.12500000E-01  6.25000000E-02
             -4.37500000E-01  3.12500000E-01  6.25000000E-02
             -3.12500000E-01  3.12500000E-01  6.25000000E-02
             -1.87500000E-01  3.12500000E-01  6.25000000E-02
             -6.25000000E-02  3.12500000E-01  6.25000000E-02
              6.25000000E-02  4.37500000E-01  6.25000000E-02
              1.87500000E-01  4.37500000E-01  6.25000000E-02
              3.12500000E-01  4.37500000E-01  6.25000000E-02
              4.37500000E-01  4.37500000E-01  6.25000000E-02
             -4.37500000E-01  4.37500000E-01  6.25000000E-02
             -3.12500000E-01  4.37500000E-01  6.25000000E-02
             -1.87500000E-01  4.37500000E-01  6.25000000E-02
             -6.25000000E-02  4.37500000E-01  6.25000000E-02
              6.25000000E-02 -4.37500000E-01  6.25000000E-02
              1.87500000E-01 -4.37500000E-01  6.25000000E-02
              3.12500000E-01 -4.37500000E-01  6.25000000E-02
              4.37500000E-01 -4.37500000E-01  6.25000000E-02
             -4.37500000E-01 -4.37500000E-01  6.25000000E-02
             -3.12500000E-01 -4.37500000E-01  6.25000000E-02
             -1.87500000E-01 -4.37500000E-01  6.25000000E-02
             -6.25000000E-02 -4.37500000E-01  6.25000000E-02
              6.25000000E-02 -3.12500000E-01  6.25000000E-02
              1.87500000E-01 -3.12500000E-01  6.25000000E-02
              3.12500000E-01 -3.12500000E-01  6.25000000E-02
              4.37500000E-01 -3.12500000E-01  6.25000000E-02
             -4.37500000E-01 -3.12500000E-01  6.25000000E-02
             -3.12500000E-01 -3.12500000E-01  6.25000000E-02
             -1.87500000E-01 -3.12500000E-01  6.25000000E-02
             -6.25000000E-02 -3.12500000E-01  6.25000000E-02
              6.25000000E-02 -1.87500000E-01  6.25000000E-02
              1.87500000E-01 -1.87500000E-01  6.25000000E-02
                       outvar1 : prtvol=0, do not print more k-points.
   kptrlen    5.95473847E+01
    kptopt         3
  kptrlatt    8  0  0   0  8  0   0  0  8
P    mkmem       512
P   mkqmem       512
P   mk1mem       512
     natom         5
     nband        20
    ndtset         1
     ngfft        45      45      45
      nkpt       512
      nqpt         1
     nstep        70
      nsym        48
    ntypat         3
       occ    2.000000  2.000000  2.000000  2.000000  2.000000  2.000000
              2.000000  2.000000  2.000000  2.000000  2.000000  2.000000
              2.000000  2.000000  2.000000  2.000000  2.000000  2.000000
              2.000000  2.000000
 optdriver         1
       qpt    5.00000000E-01  5.00000000E-01  5.00000000E-01
   rfatpol         1       5
     rfdir         1       1       1
    rfphon         1
    shiftk    5.00000000E-01  5.00000000E-01  5.00000000E-01
   spgroup       221
    symrel    1  0  0   0  1  0   0  0  1      -1  0  0   0 -1  0   0  0 -1
             -1  0  0   0  1  0   0  0 -1       1  0  0   0 -1  0   0  0  1
             -1  0  0   0 -1  0   0  0  1       1  0  0   0  1  0   0  0 -1
              1  0  0   0 -1  0   0  0 -1      -1  0  0   0  1  0   0  0  1
              0  1  0   1  0  0   0  0  1       0 -1  0  -1  0  0   0  0 -1
              0 -1  0   1  0  0   0  0 -1       0  1  0  -1  0  0   0  0  1
              0 -1  0  -1  0  0   0  0  1       0  1  0   1  0  0   0  0 -1
              0  1  0  -1  0  0   0  0 -1       0 -1  0   1  0  0   0  0  1
              0  0  1   1  0  0   0  1  0       0  0 -1  -1  0  0   0 -1  0
              0  0 -1   1  0  0   0 -1  0       0  0  1  -1  0  0   0  1  0
              0  0 -1  -1  0  0   0  1  0       0  0  1   1  0  0   0 -1  0
              0  0  1  -1  0  0   0 -1  0       0  0 -1   1  0  0   0  1  0
              1  0  0   0  0  1   0  1  0      -1  0  0   0  0 -1   0 -1  0
             -1  0  0   0  0  1   0 -1  0       1  0  0   0  0 -1   0  1  0
             -1  0  0   0  0 -1   0  1  0       1  0  0   0  0  1   0 -1  0
              1  0  0   0  0 -1   0 -1  0      -1  0  0   0  0  1   0  1  0
              0  1  0   0  0  1   1  0  0       0 -1  0   0  0 -1  -1  0  0
              0 -1  0   0  0  1  -1  0  0       0  1  0   0  0 -1   1  0  0
              0 -1  0   0  0 -1   1  0  0       0  1  0   0  0  1  -1  0  0
              0  1  0   0  0 -1  -1  0  0       0 -1  0   0  0  1   1  0  0
              0  0  1   0  1  0   1  0  0       0  0 -1   0 -1  0  -1  0  0
              0  0 -1   0  1  0  -1  0  0       0  0  1   0 -1  0   1  0  0
              0  0 -1   0 -1  0   1  0  0       0  0  1   0  1  0  -1  0  0
              0  0  1   0 -1  0  -1  0  0       0  0 -1   0  1  0   1  0  0
    tolvrs    1.00000000E-08
     typat    1  2  3  3  3
       wtk      0.00195    0.00195    0.00195    0.00195    0.00195    0.00195
                0.00195    0.00195    0.00195    0.00195    0.00195    0.00195
                0.00195    0.00195    0.00195    0.00195    0.00195    0.00195
                0.00195    0.00195    0.00195    0.00195    0.00195    0.00195
                0.00195    0.00195    0.00195    0.00195    0.00195    0.00195
                0.00195    0.00195    0.00195    0.00195    0.00195    0.00195
                0.00195    0.00195    0.00195    0.00195    0.00195    0.00195
                0.00195    0.00195    0.00195    0.00195    0.00195    0.00195
                0.00195    0.00195
                outvar1 : prtvol=0, do not print more k-points.
    xangst    0.0000000000E+00  0.0000000000E+00  0.0000000000E+00
              1.9694449244E+00  1.9694449244E+00  1.9694449244E+00
              0.0000000000E+00  1.9694449244E+00  1.9694449244E+00
              1.9694449244E+00  0.0000000000E+00  1.9694449244E+00
              1.9694449244E+00  1.9694449244E+00  0.0000000000E+00
     xcart    0.0000000000E+00  0.0000000000E+00  0.0000000000E+00
              3.7217115408E+00  3.7217115408E+00  3.7217115408E+00
              0.0000000000E+00  3.7217115408E+00  3.7217115408E+00
              3.7217115408E+00  0.0000000000E+00  3.7217115408E+00
              3.7217115408E+00  3.7217115408E+00  0.0000000000E+00
      xred    0.0000000000E+00  0.0000000000E+00  0.0000000000E+00
              5.0000000000E-01  5.0000000000E-01  5.0000000000E-01
              0.0000000000E+00  5.0000000000E-01  5.0000000000E-01
              5.0000000000E-01  0.0000000000E+00  5.0000000000E-01
              5.0000000000E-01  5.0000000000E-01  0.0000000000E+00
     znucl     56.00000   22.00000    8.00000

================================================================================

 chkinp: Checking input parameters for consistency, jdtset= 1.

================================================================================
== DATASET  1 ==================================================================

 Real(R)+Recip(G) space primitive vectors, cartesian coordinates (Bohr,Bohr^-1):
 R(1)=  7.4434231  0.0000000  0.0000000  G(1)=  0.1343468  0.0000000  0.0000000
 R(2)=  0.0000000  7.4434231  0.0000000  G(2)=  0.0000000  0.1343468  0.0000000
 R(3)=  0.0000000  0.0000000  7.4434231  G(3)=  0.0000000  0.0000000  0.1343468
 Unit cell volume ucvol=  4.1239949E+02 bohr^3
 Angles (23,13,12)=  9.00000000E+01  9.00000000E+01  9.00000000E+01 degrees
 setup1 : take into account q-point for computing boxcut.

 getcut: wavevector=  0.5000  0.5000  0.5000  ngfft=  45  45  45
         ecut(hartree)=     40.000   => boxcut(ratio)=   2.03018

--- Pseudopotential description ------------------------------------------------
- pspini: atom type   1  psp file is ../56ba.psp.mod
- pspatm: opening atomic psp file    ../56ba.psp.mod
 Barium.ion 5s2.5p6.6s0.5d0 rcs=rcp=rcd=1.7 ecut=22/28
  56.00000  10.00000    940000                znucl, zion, pspdat
    4    3    2    2      2001   0.00000      pspcod,pspxc,lmax,lloc,mmax,r2well
    0   0.000   0.000    2   1.6965489        l,e99.0,e99.9,nproj,rcpsp
   0.00000000   0.00000000   0.00000000   0.00000000     rms, ekb1, ekb2, epsatm
    1   0.000   0.000    2   1.6965489        l,e99.0,e99.9,nproj,rcpsp
   0.00000000   0.00000000   0.00000000   0.00000000     rms, ekb1, ekb2, epsatm
    2   0.000   0.000    0   1.6965489        l,e99.0,e99.9,nproj,rcpsp
   0.00000000   0.00000000   0.00000000   0.00000000     rms, ekb1, ekb2, epsatm
    0.00000000000000    0.00000000000000    0.00000000000000   rchrg,fchrg,qchrg
 pspatm: epsatm=   43.25917021
         --- l  ekb(1:nproj) -->
             0   -9.646692   27.266828
             1   -6.938476   21.148499
 pspatm: atomic psp has been read  and splines computed

- pspini: atom type   2  psp file is ../22ti.psp.mod
- pspatm: opening atomic psp file    ../22ti.psp.mod
 Titane.ion 3s2.3p6.4s0.3d2 rcd=1.65, rcs=rc0=1.25, ecut 32/54
  22.00000  12.00000    940000                znucl, zion, pspdat
    4    3    2    2      2001   0.00000      pspcod,pspxc,lmax,lloc,mmax,r2well
    0   0.000   0.000    2   1.2533577        l,e99.0,e99.9,nproj,rcpsp
   0.00000000   0.00000000   0.00000000   0.00000000     rms, ekb1, ekb2, epsatm
    1   0.000   0.000    2   1.2533577        l,e99.0,e99.9,nproj,rcpsp
   0.00000000   0.00000000   0.00000000   0.00000000     rms, ekb1, ekb2, epsatm
    2   0.000   0.000    0   1.6491622        l,e99.0,e99.9,nproj,rcpsp
   0.00000000   0.00000000   0.00000000   0.00000000     rms, ekb1, ekb2, epsatm
    0.00000000000000    0.00000000000000    0.00000000000000   rchrg,fchrg,qchrg
 pspatm: epsatm=    4.67708954
         --- l  ekb(1:nproj) -->
             0    9.517316   -2.344682
             1    5.011406   -0.741179
 pspatm: atomic psp has been read  and splines computed

- pspini: atom type   3  psp file is ../8o.phoney.mod
- pspatm: opening atomic psp file    ../8o.phoney.mod
 Compromise psp for oxygen with rc=1.5 ec=25 double reference
   8.00000   6.00000    980710                znucl, zion, pspdat
    5    3    1    1       600   0.00000      pspcod,pspxc,lmax,lloc,mmax,r2well
    1.000000E-06    3.075239E-02              r1 and al (Hamman grid)
    0   0.000   0.000    2   1.4915765        l,e99.0,e99.9,nproj,rcpsp
   0.00000000   0.00000000   0.00000000   0.00000000     rms, ekb1, ekb2, epsatm
    1   0.000   0.000    0   1.4915765        l,e99.0,e99.9,nproj,rcpsp
   0.00000000   0.00000000   0.00000000   0.00000000     rms, ekb1, ekb2, epsatm
    0.00000000000000    0.00000000000000    0.00000000000000   rchrg,fchrg,qchrg
 pspatm: epsatm=    1.43569736
         --- l  ekb(1:nproj) -->
             0    5.763361   -1.798421
 pspatm: atomic psp has been read  and splines computed

   2.08973407E+03                                ecore*ucvol(ha*bohr**3)
--------------------------------------------------------------------------------

-inwffil : will read wavefunctions from disk file perovskite-Gamma_o_DS1_WFK
- newkpt: read input wf with ikpt,npw=   1    4996, make ikpt,npw=   1    4996
- newkpt: read input wf with ikpt,npw=   2    4976, make ikpt,npw=   2    4976
- newkpt: read input wf with ikpt,npw=   3    4998, make ikpt,npw=   3    4998
- newkpt: read input wf with ikpt,npw=   4    4986, make ikpt,npw=   4    4986
- newkpt: read input wf with ikpt,npw=   4    4986, make ikpt,npw=   5    4986
- newkpt: read input wf with ikpt,npw=   3    4998, make ikpt,npw=   6    4998
- newkpt: read input wf with ikpt,npw=   2    4976, make ikpt,npw=   7    4976
- newkpt: read input wf with ikpt,npw=   1    4996, make ikpt,npw=   8    4996
- newkpt: read input wf with ikpt,npw=   2    4976, make ikpt,npw=   9    4976
- newkpt: read input wf with ikpt,npw=   5    4985, make ikpt,npw=  10    4985
- newkpt: read input wf with ikpt,npw=   6    5000, make ikpt,npw=  11    5000
- newkpt: read input wf with ikpt,npw=   7    4987, make ikpt,npw=  12    4987
- newkpt: read input wf with ikpt,npw=   7    4987, make ikpt,npw=  13    4987
- newkpt: read input wf with ikpt,npw=   6    5000, make ikpt,npw=  14    5000
- newkpt: read input wf with ikpt,npw=   5    4985, make ikpt,npw=  15    4985
- newkpt: read input wf with ikpt,npw=   2    4976, make ikpt,npw=  16    4976
- newkpt: read input wf with ikpt,npw=   3    4998, make ikpt,npw=  17    4998
- newkpt: read input wf with ikpt,npw=   6    5000, make ikpt,npw=  18    5000
- newkpt: read input wf with ikpt,npw=   8    4973, make ikpt,npw=  19    4973
- newkpt: read input wf with ikpt,npw=   9    4983, make ikpt,npw=  20    4983
- newkpt: read input wf with ikpt,npw=   9    4983, make ikpt,npw=  21    4983
- newkpt: read input wf with ikpt,npw=   8    4973, make ikpt,npw=  22    4973
- newkpt: read input wf with ikpt,npw=   6    5000, make ikpt,npw=  23    5000
- newkpt: read input wf with ikpt,npw=   3    4998, make ikpt,npw=  24    4998
- newkpt: read input wf with ikpt,npw=   4    4986, make ikpt,npw=  25    4986
- newkpt: read input wf with ikpt,npw=   7    4987, make ikpt,npw=  26    4987
- newkpt: read input wf with ikpt,npw=   9    4983, make ikpt,npw=  27    4983
- newkpt: read input wf with ikpt,npw=  10    4989, make ikpt,npw=  28    4989
- newkpt: read input wf with ikpt,npw=  10    4989, make ikpt,npw=  29    4989
- newkpt: read input wf with ikpt,npw=   9    4983, make ikpt,npw=  30    4983
- newkpt: read input wf with ikpt,npw=   7    4987, make ikpt,npw=  31    4987
- newkpt: read input wf with ikpt,npw=   4    4986, make ikpt,npw=  32    4986
- newkpt: read input wf with ikpt,npw=   4    4986, make ikpt,npw=  33    4986
- newkpt: read input wf with ikpt,npw=   7    4987, make ikpt,npw=  34    4987
- newkpt: read input wf with ikpt,npw=   9    4983, make ikpt,npw=  35    4983
- newkpt: read input wf with ikpt,npw=  10    4989, make ikpt,npw=  36    4989
- newkpt: read input wf with ikpt,npw=  10    4989, make ikpt,npw=  37    4989
- newkpt: read input wf with ikpt,npw=   9    4983, make ikpt,npw=  38    4983
- newkpt: read input wf with ikpt,npw=   7    4987, make ikpt,npw=  39    4987
- newkpt: read input wf with ikpt,npw=   4    4986, make ikpt,npw=  40    4986
- newkpt: read input wf with ikpt,npw=   3    4998, make ikpt,npw=  41    4998
- newkpt: read input wf with ikpt,npw=   6    5000, make ikpt,npw=  42    5000
- newkpt: read input wf with ikpt,npw=   8    4973, make ikpt,npw=  43    4973
- newkpt: read input wf with ikpt,npw=   9    4983, make ikpt,npw=  44    4983
- newkpt: read input wf with ikpt,npw=   9    4983, make ikpt,npw=  45    4983
- newkpt: read input wf with ikpt,npw=   8    4973, make ikpt,npw=  46    4973
- newkpt: read input wf with ikpt,npw=   6    5000, make ikpt,npw=  47    5000
- newkpt: read input wf with ikpt,npw=   3    4998, make ikpt,npw=  48    4998
- newkpt: read input wf with ikpt,npw=   2    4976, make ikpt,npw=  49    4976
- newkpt: read input wf with ikpt,npw=   5    4985, make ikpt,npw=  50    4985
- newkpt : prtvol=0 or 1, do not print more k-points.
 

 ==>  initialize data related to q vector <==

 The list of irreducible perturbations for this q vector is:
    1)    idir= 1    ipert=   1
    2)    idir= 1    ipert=   2
    3)    idir= 1    ipert=   3
    4)    idir= 2    ipert=   3

================================================================================

 The perturbation idir=   2  ipert=   1 is
 symmetric of a previously calculated perturbation.
 So, its SCF calculation is not needed.


 The perturbation idir=   3  ipert=   1 is
 symmetric of a previously calculated perturbation.
 So, its SCF calculation is not needed.


 The perturbation idir=   2  ipert=   2 is
 symmetric of a previously calculated perturbation.
 So, its SCF calculation is not needed.


 The perturbation idir=   3  ipert=   2 is
 symmetric of a previously calculated perturbation.
 So, its SCF calculation is not needed.


 The perturbation idir=   3  ipert=   3 is
 symmetric of a previously calculated perturbation.
 So, its SCF calculation is not needed.


 The perturbation idir=   1  ipert=   4 is
 symmetric of a previously calculated perturbation.
 So, its SCF calculation is not needed.


 The perturbation idir=   2  ipert=   4 is
 symmetric of a previously calculated perturbation.
 So, its SCF calculation is not needed.


 The perturbation idir=   3  ipert=   4 is
 symmetric of a previously calculated perturbation.
 So, its SCF calculation is not needed.


 The perturbation idir=   1  ipert=   5 is
 symmetric of a previously calculated perturbation.
 So, its SCF calculation is not needed.


 The perturbation idir=   2  ipert=   5 is
 symmetric of a previously calculated perturbation.
 So, its SCF calculation is not needed.


 The perturbation idir=   3  ipert=   5 is
 symmetric of a previously calculated perturbation.
 So, its SCF calculation is not needed.


--------------------------------------------------------------------------------
 Perturbation wavevector (in red.coord.)   0.500000  0.500000  0.500000
 Perturbation : displacement of atom   1   along direction   1
 Found     2 symmetries that leave the perturbation invariant.
 symkpt : the number of k-points, thanks to the symmetries,
 is reduced to   288 .

--------------------------------------------------------------------------------

-inwffil : will read wavefunctions from disk file perovskite-Gamma_o_DS1_WFK
- newkpt: read input wf with ikpt,npw=   1    4996, make ikpt,npw=   1    4996
- newkpt: read input wf with ikpt,npw=   2    4976, make ikpt,npw=   2    4976
- newkpt: read input wf with ikpt,npw=   3    4998, make ikpt,npw=   3    4998
- newkpt: read input wf with ikpt,npw=   4    4986, make ikpt,npw=   4    4986
- newkpt: read input wf with ikpt,npw=   4    4986, make ikpt,npw=   5    4986
- newkpt: read input wf with ikpt,npw=   3    4998, make ikpt,npw=   6    4998
- newkpt: read input wf with ikpt,npw=   2    4976, make ikpt,npw=   7    4976
- newkpt: read input wf with ikpt,npw=   1    4996, make ikpt,npw=   8    4996
- newkpt: read input wf with ikpt,npw=   2    4976, make ikpt,npw=   9    4976
- newkpt: read input wf with ikpt,npw=   5    4985, make ikpt,npw=  10    4985
- newkpt: read input wf with ikpt,npw=   6    5000, make ikpt,npw=  11    5000
- newkpt: read input wf with ikpt,npw=   7    4987, make ikpt,npw=  12    4987
- newkpt: read input wf with ikpt,npw=   7    4987, make ikpt,npw=  13    4987
- newkpt: read input wf with ikpt,npw=   6    5000, make ikpt,npw=  14    5000
- newkpt: read input wf with ikpt,npw=   5    4985, make ikpt,npw=  15    4985
- newkpt: read input wf with ikpt,npw=   2    4976, make ikpt,npw=  16    4976
- newkpt: read input wf with ikpt,npw=   3    4998, make ikpt,npw=  17    4998
- newkpt: read input wf with ikpt,npw=   6    5000, make ikpt,npw=  18    5000
- newkpt: read input wf with ikpt,npw=   8    4973, make ikpt,npw=  19    4973
- newkpt: read input wf with ikpt,npw=   9    4983, make ikpt,npw=  20    4983
- newkpt: read input wf with ikpt,npw=   9    4983, make ikpt,npw=  21    4983
- newkpt: read input wf with ikpt,npw=   8    4973, make ikpt,npw=  22    4973
- newkpt: read input wf with ikpt,npw=   6    5000, make ikpt,npw=  23    5000
- newkpt: read input wf with ikpt,npw=   3    4998, make ikpt,npw=  24    4998
- newkpt: read input wf with ikpt,npw=   4    4986, make ikpt,npw=  25    4986
- newkpt: read input wf with ikpt,npw=   7    4987, make ikpt,npw=  26    4987
- newkpt: read input wf with ikpt,npw=   9    4983, make ikpt,npw=  27    4983
- newkpt: read input wf with ikpt,npw=  10    4989, make ikpt,npw=  28    4989
- newkpt: read input wf with ikpt,npw=  10    4989, make ikpt,npw=  29    4989
- newkpt: read input wf with ikpt,npw=   9    4983, make ikpt,npw=  30    4983
- newkpt: read input wf with ikpt,npw=   7    4987, make ikpt,npw=  31    4987
- newkpt: read input wf with ikpt,npw=   4    4986, make ikpt,npw=  32    4986
- newkpt: read input wf with ikpt,npw=   4    4986, make ikpt,npw=  33    4986
- newkpt: read input wf with ikpt,npw=   7    4987, make ikpt,npw=  34    4987
- newkpt: read input wf with ikpt,npw=   9    4983, make ikpt,npw=  35    4983
- newkpt: read input wf with ikpt,npw=  10    4989, make ikpt,npw=  36    4989
- newkpt: read input wf with ikpt,npw=  10    4989, make ikpt,npw=  37    4989
- newkpt: read input wf with ikpt,npw=   9    4983, make ikpt,npw=  38    4983
- newkpt: read input wf with ikpt,npw=   7    4987, make ikpt,npw=  39    4987
- newkpt: read input wf with ikpt,npw=   4    4986, make ikpt,npw=  40    4986
- newkpt: read input wf with ikpt,npw=   3    4998, make ikpt,npw=  41    4998
- newkpt: read input wf with ikpt,npw=   6    5000, make ikpt,npw=  42    5000
- newkpt: read input wf with ikpt,npw=   8    4973, make ikpt,npw=  43    4973
- newkpt: read input wf with ikpt,npw=   9    4983, make ikpt,npw=  44    4983
- newkpt: read input wf with ikpt,npw=   9    4983, make ikpt,npw=  45    4983
- newkpt: read input wf with ikpt,npw=   8    4973, make ikpt,npw=  46    4973
- newkpt: read input wf with ikpt,npw=   6    5000, make ikpt,npw=  47    5000
- newkpt: read input wf with ikpt,npw=   3    4998, make ikpt,npw=  48    4998
- newkpt: read input wf with ikpt,npw=   2    4976, make ikpt,npw=  49    4976
- newkpt: read input wf with ikpt,npw=   5    4985, make ikpt,npw=  50    4985
- newkpt : prtvol=0 or 1, do not print more k-points.
 
--------------------------------------------------------------------------------

-inwffil : will read wavefunctions from disk file perovskite-Gamma_o_DS1_WFK
- newkpt: read input wf with ikpt,npw=  20    4935, make ikpt,npw=   1    4935
- newkpt: read input wf with ikpt,npw=  19    4953, make ikpt,npw=   2    4953
- newkpt: read input wf with ikpt,npw=  16    4983, make ikpt,npw=   3    4983
- newkpt: read input wf with ikpt,npw=  10    4989, make ikpt,npw=   4    4989
- newkpt: read input wf with ikpt,npw=  10    4989, make ikpt,npw=   5    4989
- newkpt: read input wf with ikpt,npw=  16    4983, make ikpt,npw=   6    4983
- newkpt: read input wf with ikpt,npw=  19    4953, make ikpt,npw=   7    4953
- newkpt: read input wf with ikpt,npw=  20    4935, make ikpt,npw=   8    4935
- newkpt: read input wf with ikpt,npw=  19    4953, make ikpt,npw=   9    4953
- newkpt: read input wf with ikpt,npw=  18    4975, make ikpt,npw=  10    4975
- newkpt: read input wf with ikpt,npw=  15    4981, make ikpt,npw=  11    4981
- newkpt: read input wf with ikpt,npw=   9    4983, make ikpt,npw=  12    4983
- newkpt: read input wf with ikpt,npw=   9    4983, make ikpt,npw=  13    4983
- newkpt: read input wf with ikpt,npw=  15    4981, make ikpt,npw=  14    4981
- newkpt: read input wf with ikpt,npw=  18    4975, make ikpt,npw=  15    4975
- newkpt: read input wf with ikpt,npw=  19    4953, make ikpt,npw=  16    4953
- newkpt: read input wf with ikpt,npw=  16    4983, make ikpt,npw=  17    4983
- newkpt: read input wf with ikpt,npw=  15    4981, make ikpt,npw=  18    4981
- newkpt: read input wf with ikpt,npw=  13    4996, make ikpt,npw=  19    4996
- newkpt: read input wf with ikpt,npw=   7    4987, make ikpt,npw=  20    4987
- newkpt: read input wf with ikpt,npw=   7    4987, make ikpt,npw=  21    4987
- newkpt: read input wf with ikpt,npw=  13    4996, make ikpt,npw=  22    4996
- newkpt: read input wf with ikpt,npw=  15    4981, make ikpt,npw=  23    4981
- newkpt: read input wf with ikpt,npw=  16    4983, make ikpt,npw=  24    4983
- newkpt: read input wf with ikpt,npw=  10    4989, make ikpt,npw=  25    4989
- newkpt: read input wf with ikpt,npw=   9    4983, make ikpt,npw=  26    4983
- newkpt: read input wf with ikpt,npw=   7    4987, make ikpt,npw=  27    4987
- newkpt: read input wf with ikpt,npw=   4    4986, make ikpt,npw=  28    4986
- newkpt: read input wf with ikpt,npw=   4    4986, make ikpt,npw=  29    4986
- newkpt: read input wf with ikpt,npw=   7    4987, make ikpt,npw=  30    4987
- newkpt: read input wf with ikpt,npw=   9    4983, make ikpt,npw=  31    4983
- newkpt: read input wf with ikpt,npw=  10    4989, make ikpt,npw=  32    4989
- newkpt: read input wf with ikpt,npw=  10    4989, make ikpt,npw=  33    4989
- newkpt: read input wf with ikpt,npw=   9    4983, make ikpt,npw=  34    4983
- newkpt: read input wf with ikpt,npw=   7    4987, make ikpt,npw=  35    4987
- newkpt: read input wf with ikpt,npw=   4    4986, make ikpt,npw=  36    4986
- newkpt: read input wf with ikpt,npw=   4    4986, make ikpt,npw=  37    4986
- newkpt: read input wf with ikpt,npw=   7    4987, make ikpt,npw=  38    4987
- newkpt: read input wf with ikpt,npw=   9    4983, make ikpt,npw=  39    4983
- newkpt: read input wf with ikpt,npw=  10    4989, make ikpt,npw=  40    4989
- newkpt: read input wf with ikpt,npw=  16    4983, make ikpt,npw=  41    4983
- newkpt: read input wf with ikpt,npw=  15    4981, make ikpt,npw=  42    4981
- newkpt: read input wf with ikpt,npw=  13    4996, make ikpt,npw=  43    4996
- newkpt: read input wf with ikpt,npw=   7    4987, make ikpt,npw=  44    4987
- newkpt: read input wf with ikpt,npw=   7    4987, make ikpt,npw=  45    4987
- newkpt: read input wf with ikpt,npw=  13    4996, make ikpt,npw=  46    4996
- newkpt: read input wf with ikpt,npw=  15    4981, make ikpt,npw=  47    4981
- newkpt: read input wf with ikpt,npw=  16    4983, make ikpt,npw=  48    4983
- newkpt: read input wf with ikpt,npw=  19    4953, make ikpt,npw=  49    4953
- newkpt: read input wf with ikpt,npw=  18    4975, make ikpt,npw=  50    4975
- newkpt : prtvol=0 or 1, do not print more k-points.
 
 Initialisation of the first-order wave-functions :
  ireadwf=   0
P newkpt: treating     20 bands with npw=    4935 for ikpt=   1
P newkpt: treating     20 bands with npw=    4953 for ikpt=   2
P newkpt: treating     20 bands with npw=    4983 for ikpt=   3
P newkpt: treating     20 bands with npw=    4989 for ikpt=   4
P newkpt: treating     20 bands with npw=    4989 for ikpt=   5
P newkpt: treating     20 bands with npw=    4983 for ikpt=   6
P newkpt: treating     20 bands with npw=    4953 for ikpt=   7
P newkpt: treating     20 bands with npw=    4935 for ikpt=   8
P newkpt: treating     20 bands with npw=    4953 for ikpt=   9
P newkpt: treating     20 bands with npw=    4975 for ikpt=  10
P newkpt: treating     20 bands with npw=    4981 for ikpt=  11
P newkpt: treating     20 bands with npw=    4983 for ikpt=  12
P newkpt: treating     20 bands with npw=    4983 for ikpt=  13
P newkpt: treating     20 bands with npw=    4981 for ikpt=  14
P newkpt: treating     20 bands with npw=    4975 for ikpt=  15
P newkpt: treating     20 bands with npw=    4953 for ikpt=  16
P newkpt: treating     20 bands with npw=    4983 for ikpt=  17
P newkpt: treating     20 bands with npw=    4981 for ikpt=  18
P newkpt: treating     20 bands with npw=    4996 for ikpt=  19
P newkpt: treating     20 bands with npw=    4987 for ikpt=  20
P newkpt: treating     20 bands with npw=    4987 for ikpt=  21
P newkpt: treating     20 bands with npw=    4996 for ikpt=  22
P newkpt: treating     20 bands with npw=    4981 for ikpt=  23
P newkpt: treating     20 bands with npw=    4983 for ikpt=  24
P newkpt: treating     20 bands with npw=    4989 for ikpt=  25
P newkpt: treating     20 bands with npw=    4983 for ikpt=  26
P newkpt: treating     20 bands with npw=    4987 for ikpt=  27
P newkpt: treating     20 bands with npw=    4986 for ikpt=  28
P newkpt: treating     20 bands with npw=    4986 for ikpt=  29
P newkpt: treating     20 bands with npw=    4987 for ikpt=  30
P newkpt: treating     20 bands with npw=    4983 for ikpt=  31
P newkpt: treating     20 bands with npw=    4989 for ikpt=  32
P newkpt: treating     20 bands with npw=    4989 for ikpt=  33
P newkpt: treating     20 bands with npw=    4983 for ikpt=  34
P newkpt: treating     20 bands with npw=    4987 for ikpt=  35
P newkpt: treating     20 bands with npw=    4986 for ikpt=  36
P newkpt: treating     20 bands with npw=    4986 for ikpt=  37
P newkpt: treating     20 bands with npw=    4987 for ikpt=  38
P newkpt: treating     20 bands with npw=    4983 for ikpt=  39
P newkpt: treating     20 bands with npw=    4989 for ikpt=  40
P newkpt: treating     20 bands with npw=    4983 for ikpt=  41
P newkpt: treating     20 bands with npw=    4981 for ikpt=  42
P newkpt: treating     20 bands with npw=    4996 for ikpt=  43
P newkpt: treating     20 bands with npw=    4987 for ikpt=  44
P newkpt: treating     20 bands with npw=    4987 for ikpt=  45
P newkpt: treating     20 bands with npw=    4996 for ikpt=  46
P newkpt: treating     20 bands with npw=    4981 for ikpt=  47
P newkpt: treating     20 bands with npw=    4983 for ikpt=  48
P newkpt: treating     20 bands with npw=    4953 for ikpt=  49
P newkpt: treating     20 bands with npw=    4975 for ikpt=  50
  newkpt: prtvol=0 or 1, do not print more k-points.
 

     iter   2DEtotal(Ha)        deltaE(Ha) residm    vres2
-ETOT  1   543.22129492868     -3.998E+02 4.307E+00 3.796E+06
 ETOT  2   24.985946961212     -5.182E+02 1.857E+00 7.419E+04
 ETOT  3   9.2359055281761     -1.575E+01 4.955E-02 1.565E+04
 ETOT  4   6.2408346000591     -2.995E+00 2.644E-02 4.098E+03
 ETOT  5   5.7203015914572     -5.205E-01 4.483E-03 8.400E+00
 ETOT  6   5.7110882701215     -9.213E-03 2.010E-03 3.988E-01
 ETOT  7   5.7101679524822     -9.203E-04 5.942E-04 3.925E+00
 ETOT  8   5.7086146027427     -1.553E-03 2.280E-04 1.261E+00
 ETOT  9   5.7080509506570     -5.637E-04 1.045E-04 2.475E-01
 ETOT 10   5.7079967260754     -5.422E-05 3.821E-05 4.171E-01
 ETOT 11   5.7079032558338     -9.347E-05 2.706E-05 7.442E-03
 ETOT 12   5.7078920241158     -1.123E-05 1.267E-05 1.115E-02
 ETOT 13   5.7078826295474     -9.395E-06 8.524E-06 7.335E-03
 ETOT 14   5.7078799904791     -2.639E-06 4.299E-06 7.675E-03
 ETOT 15   5.7078788416031     -1.149E-06 2.779E-06 8.739E-03
 ETOT 16   5.7078781553503     -6.863E-07 1.401E-06 7.920E-03
 ETOT 17   5.7078770749179     -1.080E-06 9.470E-07 1.487E-03
 ETOT 18   5.7078766916579     -3.833E-07 5.060E-07 3.642E-04
 ETOT 19   5.7078766288246     -6.283E-08 3.061E-07 6.076E-04
 ETOT 20   5.7078765569165     -7.191E-08 1.762E-07 3.047E-04
 ETOT 21   5.7078764239702     -1.329E-07 1.052E-07 3.175E-05
 ETOT 22   5.7078764045932     -1.938E-08 6.584E-08 4.641E-06
 ETOT 23   5.7078763962484     -8.345E-09 3.591E-08 9.861E-07
 ETOT 24   5.7078763916052     -4.643E-09 2.279E-08 2.250E-07
 ETOT 25   5.7078763892334     -2.372E-09 1.237E-08 2.233E-07
 ETOT 26   5.7078763878869     -1.347E-09 7.900E-09 9.876E-08
 ETOT 27   5.7078763871752     -7.117E-10 4.301E-09 1.082E-07
 ETOT 28   5.7078763867357     -4.395E-10 2.746E-09 2.103E-08
 ETOT 29   5.7078763864911     -2.447E-10 1.477E-09 6.029E-09

 At SCF step   29       vres2   =  6.03E-09 < tolvrs=  1.00E-08 =>converged.
================================================================================

 ----iterations are completed or convergence reached----

 Mean square residual over all n,k,spin=   3.3908E-12; max=  1.4770E-09
   0.0625  0.0625  0.0625    1  1.36600E-13 kpt; spin; max resid(k); each band:
 1.39E-16 6.25E-15 3.87E-15 5.48E-15 4.50E-16 5.06E-15 3.26E-16 2.87E-15
 2.70E-16 8.41E-16 6.27E-16 7.37E-15 4.14E-14 1.16E-14 2.99E-14 3.04E-14
 5.39E-15 1.37E-13 4.95E-14 8.56E-14
   0.1875  0.0625  0.0625    1  1.60638E-13 kpt; spin; max resid(k); each band:
 7.01E-17 2.81E-15 5.86E-15 4.09E-15 7.28E-16 3.98E-15 2.26E-16 9.60E-16
 6.79E-16 7.88E-16 1.11E-15 2.01E-15 2.08E-14 4.45E-14 4.85E-14 9.59E-15
 3.75E-15 2.21E-14 1.61E-13 6.28E-14
   0.3125  0.0625  0.0625    1  1.00816E-13 kpt; spin; max resid(k); each band:
 6.60E-17 6.16E-15 3.63E-15 3.56E-15 6.53E-16 3.81E-15 2.50E-16 3.21E-16
 7.33E-16 6.88E-16 2.22E-15 3.76E-15 1.59E-14 2.16E-14 1.62E-14 5.07E-14
 2.68E-15 2.66E-14 1.01E-13 6.77E-14
   0.4375  0.0625  0.0625    1  1.08909E-13 kpt; spin; max resid(k); each band:
 7.69E-17 5.49E-15 5.52E-15 3.92E-15 2.46E-16 5.74E-15 2.72E-16 4.40E-16
 4.04E-16 3.41E-16 3.25E-15 7.12E-15 1.15E-14 3.03E-14 2.59E-14 6.35E-14
 3.52E-15 3.53E-14 1.09E-13 6.87E-14
  -0.4375  0.0625  0.0625    1  1.08915E-13 kpt; spin; max resid(k); each band:
 7.69E-17 5.49E-15 5.52E-15 3.92E-15 2.46E-16 5.74E-15 2.72E-16 4.40E-16
 4.04E-16 3.41E-16 3.25E-15 7.12E-15 1.15E-14 3.03E-14 2.62E-14 6.35E-14
 3.52E-15 3.53E-14 1.09E-13 6.87E-14
  -0.3125  0.0625  0.0625    1  1.00817E-13 kpt; spin; max resid(k); each band:
 6.60E-17 6.16E-15 3.63E-15 3.56E-15 6.53E-16 3.81E-15 2.50E-16 3.21E-16
 7.33E-16 6.88E-16 2.22E-15 3.76E-15 1.59E-14 2.16E-14 1.62E-14 5.07E-14
 2.68E-15 2.65E-14 1.01E-13 6.77E-14
  -0.1875  0.0625  0.0625    1  1.60640E-13 kpt; spin; max resid(k); each band:
 7.01E-17 2.81E-15 5.86E-15 4.09E-15 7.28E-16 3.98E-15 2.26E-16 9.60E-16
 6.79E-16 7.88E-16 1.11E-15 2.01E-15 2.08E-14 4.45E-14 4.85E-14 9.59E-15
 3.75E-15 2.21E-14 1.61E-13 6.28E-14
  -0.0625  0.0625  0.0625    1  1.36599E-13 kpt; spin; max resid(k); each band:
 1.39E-16 6.25E-15 3.87E-15 5.48E-15 4.50E-16 5.06E-15 3.26E-16 2.87E-15
 2.70E-16 8.41E-16 6.27E-16 7.37E-15 4.14E-14 1.16E-14 2.99E-14 3.04E-14
 5.39E-15 1.37E-13 4.95E-14 8.56E-14
   0.0625  0.1875  0.0625    1  1.23769E-13 kpt; spin; max resid(k); each band:
 1.23E-16 5.20E-15 4.58E-15 5.44E-15 4.16E-16 2.45E-15 3.56E-15 1.09E-15
 5.86E-16 7.79E-16 5.06E-16 3.96E-14 2.44E-14 1.49E-14 3.70E-14 4.93E-14
 5.16E-14 1.24E-13 5.43E-14 2.59E-14
   0.1875  0.1875  0.0625    1  1.28690E-13 kpt; spin; max resid(k); each band:
 6.30E-17 2.60E-15 5.80E-15 5.06E-15 5.70E-16 3.56E-15 1.36E-15 5.07E-16
 1.00E-15 5.29E-16 9.20E-16 1.07E-14 3.46E-14 3.09E-14 2.84E-14 5.08E-14
 1.29E-13 1.43E-14 5.80E-14 1.15E-13
   0.3125  0.1875  0.0625    1  1.29694E-13 kpt; spin; max resid(k); each band:
 1.04E-16 2.98E-15 5.50E-15 5.48E-15 5.39E-16 3.90E-15 1.11E-15 3.97E-16
 7.84E-16 1.13E-15 1.82E-15 3.33E-15 2.62E-14 3.41E-14 2.17E-14 4.76E-14
 1.30E-13 1.02E-13 5.36E-14 1.12E-13
   0.4375  0.1875  0.0625    1  1.94890E-13 kpt; spin; max resid(k); each band:
 1.63E-16 5.38E-15 4.89E-15 5.10E-15 2.33E-16 3.95E-15 6.10E-16 3.04E-16
 1.10E-15 1.59E-15 2.55E-15 6.01E-15 3.38E-14 4.70E-14 1.50E-14 4.81E-14
 9.84E-14 1.95E-13 8.20E-14 6.72E-14
  -0.4375  0.1875  0.0625    1  1.94890E-13 kpt; spin; max resid(k); each band:
 1.63E-16 5.38E-15 4.89E-15 5.10E-15 2.33E-16 3.95E-15 6.10E-16 3.04E-16
 1.10E-15 1.59E-15 2.55E-15 6.01E-15 3.38E-14 4.70E-14 1.50E-14 4.81E-14
 9.84E-14 1.95E-13 8.20E-14 6.72E-14
  -0.3125  0.1875  0.0625    1  1.29695E-13 kpt; spin; max resid(k); each band:
 1.04E-16 2.98E-15 5.50E-15 5.48E-15 5.39E-16 3.90E-15 1.11E-15 3.97E-16
 7.84E-16 1.13E-15 1.82E-15 3.33E-15 2.62E-14 3.41E-14 2.17E-14 4.76E-14
 1.30E-13 1.02E-13 5.36E-14 1.12E-13
  -0.1875  0.1875  0.0625    1  1.28689E-13 kpt; spin; max resid(k); each band:
 6.30E-17 2.60E-15 5.80E-15 5.06E-15 5.70E-16 3.56E-15 1.36E-15 5.07E-16
 1.00E-15 5.29E-16 9.20E-16 1.07E-14 3.46E-14 3.09E-14 2.84E-14 5.08E-14
 1.29E-13 1.43E-14 5.80E-14 1.15E-13
  -0.0625  0.1875  0.0625    1  1.23770E-13 kpt; spin; max resid(k); each band:
 1.23E-16 5.20E-15 4.58E-15 5.44E-15 4.16E-16 2.45E-15 3.56E-15 1.09E-15
 5.86E-16 7.79E-16 5.06E-16 3.96E-14 2.44E-14 1.49E-14 3.70E-14 4.93E-14
 5.16E-14 1.24E-13 5.43E-14 2.59E-14
   0.0625  0.3125  0.0625    1  7.48964E-14 kpt; spin; max resid(k); each band:
 6.03E-17 5.74E-15 5.72E-15 5.11E-15 3.60E-16 3.08E-15 3.03E-15 2.20E-15
 8.73E-16 7.12E-16 4.34E-16 5.25E-14 1.79E-14 9.51E-15 6.23E-14 3.57E-14
 6.33E-14 7.49E-14 2.85E-14 3.03E-14
   0.1875  0.3125  0.0625    1  1.19034E-13 kpt; spin; max resid(k); each band:
 7.49E-17 5.59E-15 5.40E-15 5.86E-15 4.36E-16 2.96E-15 1.80E-15 5.14E-16
 1.32E-15 7.79E-16 8.45E-16 3.28E-14 1.98E-14 1.75E-14 2.52E-14 3.34E-14
 8.60E-14 6.94E-14 4.12E-14 1.19E-13
   0.3125  0.3125  0.0625    1  2.18493E-13 kpt; spin; max resid(k); each band:
 1.62E-16 3.43E-15 5.79E-15 5.39E-15 4.14E-16 4.56E-15 1.30E-15 9.86E-16
 1.22E-15 1.26E-15 1.06E-15 1.12E-14 4.15E-14 3.13E-14 4.93E-14 7.82E-14
 7.60E-14 4.74E-14 1.52E-13 2.18E-13
   0.4375  0.3125  0.0625    1  4.58651E-13 kpt; spin; max resid(k); each band:
 1.81E-16 5.15E-15 5.51E-15 5.93E-15 2.12E-16 3.60E-15 6.41E-16 6.49E-16
 1.07E-15 3.03E-15 7.77E-16 6.06E-15 1.46E-14 6.74E-14 1.39E-14 5.16E-14
 1.13E-13 3.56E-13 4.59E-13 2.98E-13
  -0.4375  0.3125  0.0625    1  4.58647E-13 kpt; spin; max resid(k); each band:
 1.81E-16 5.15E-15 5.51E-15 5.93E-15 2.12E-16 3.60E-15 6.41E-16 6.49E-16
 1.07E-15 3.03E-15 7.77E-16 6.05E-15 1.46E-14 6.74E-14 1.39E-14 5.16E-14
 1.13E-13 3.56E-13 4.59E-13 2.98E-13
  -0.3125  0.3125  0.0625    1  2.18501E-13 kpt; spin; max resid(k); each band:
 1.62E-16 3.43E-15 5.79E-15 5.39E-15 4.14E-16 4.56E-15 1.30E-15 9.86E-16
 1.22E-15 1.26E-15 1.06E-15 1.12E-14 4.15E-14 3.13E-14 4.93E-14 7.82E-14
 7.60E-14 4.74E-14 1.52E-13 2.19E-13
  -0.1875  0.3125  0.0625    1  1.19043E-13 kpt; spin; max resid(k); each band:
 7.49E-17 5.59E-15 5.40E-15 5.86E-15 4.36E-16 2.96E-15 1.80E-15 5.14E-16
 1.32E-15 7.79E-16 8.45E-16 3.28E-14 1.98E-14 1.75E-14 2.51E-14 3.35E-14
 8.60E-14 6.94E-14 4.11E-14 1.19E-13
  -0.0625  0.3125  0.0625    1  7.48992E-14 kpt; spin; max resid(k); each band:
 6.03E-17 5.74E-15 5.72E-15 5.11E-15 3.60E-16 3.08E-15 3.03E-15 2.20E-15
 8.73E-16 7.12E-16 4.34E-16 5.25E-14 1.79E-14 9.51E-15 6.23E-14 3.57E-14
 6.33E-14 7.49E-14 2.85E-14 3.03E-14
   0.0625  0.4375  0.0625    1  6.93721E-14 kpt; spin; max resid(k); each band:
 1.75E-16 5.54E-15 5.92E-15 6.02E-15 3.15E-16 3.26E-15 3.86E-15 1.77E-15
 8.46E-16 7.76E-16 9.78E-16 3.19E-14 9.41E-15 1.35E-14 4.36E-14 3.16E-14
 4.62E-14 5.50E-14 6.94E-14 3.84E-14
   0.1875  0.4375  0.0625    1  2.47152E-13 kpt; spin; max resid(k); each band:
 1.79E-16 5.99E-15 5.88E-15 5.81E-15 3.49E-16 2.28E-15 2.19E-15 1.67E-15
 1.33E-15 7.08E-16 7.54E-16 3.16E-14 1.08E-14 1.57E-14 2.20E-14 4.93E-14
 7.95E-14 5.96E-14 8.32E-14 2.47E-13
   0.3125  0.4375  0.0625    1  8.49700E-13 kpt; spin; max resid(k); each band:
 1.75E-16 5.84E-15 6.54E-15 5.39E-15 3.20E-16 3.31E-15 1.73E-15 1.14E-15
 1.75E-15 9.01E-16 1.06E-15 2.92E-14 2.42E-14 1.37E-14 5.51E-14 4.57E-14
 5.34E-14 1.69E-13 3.38E-13 8.50E-13
   0.4375  0.4375  0.0625    1  1.23863E-11 kpt; spin; max resid(k); each band:
 1.81E-16 6.64E-15 5.52E-15 6.33E-15 1.77E-16 4.26E-15 9.36E-16 9.66E-16
 1.26E-15 1.63E-15 4.48E-16 1.32E-14 1.12E-14 2.78E-14 1.23E-13 7.60E-14
 7.87E-14 1.69E-12 1.06E-11 1.24E-11
  -0.4375  0.4375  0.0625    1  1.23861E-11 kpt; spin; max resid(k); each band:
 1.81E-16 6.64E-15 5.52E-15 6.33E-15 1.77E-16 4.26E-15 9.36E-16 9.66E-16
 1.25E-15 1.63E-15 4.48E-16 1.32E-14 1.12E-14 2.78E-14 1.23E-13 7.60E-14
 7.87E-14 1.69E-12 1.06E-11 1.24E-11
  -0.3125  0.4375  0.0625    1  8.49676E-13 kpt; spin; max resid(k); each band:
 1.75E-16 5.84E-15 6.54E-15 5.39E-15 3.20E-16 3.31E-15 1.73E-15 1.14E-15
 1.75E-15 9.01E-16 1.06E-15 2.92E-14 2.42E-14 1.37E-14 5.51E-14 4.57E-14
 5.34E-14 1.69E-13 3.38E-13 8.50E-13
  -0.1875  0.4375  0.0625    1  2.47191E-13 kpt; spin; max resid(k); each band:
 1.79E-16 5.99E-15 5.88E-15 5.81E-15 3.49E-16 2.28E-15 2.19E-15 1.67E-15
 1.33E-15 7.08E-16 7.54E-16 3.16E-14 1.08E-14 1.57E-14 2.20E-14 4.93E-14
 7.95E-14 5.96E-14 8.32E-14 2.47E-13
  -0.0625  0.4375  0.0625    1  6.93636E-14 kpt; spin; max resid(k); each band:
 1.75E-16 5.54E-15 5.92E-15 6.02E-15 3.15E-16 3.26E-15 3.86E-15 1.77E-15
 8.46E-16 7.76E-16 9.78E-16 3.19E-14 9.41E-15 1.35E-14 4.36E-14 3.16E-14
 4.62E-14 5.50E-14 6.94E-14 3.84E-14
   0.0625 -0.4375  0.0625    1  3.03376E-14 kpt; spin; max resid(k); each band:
 1.78E-16 5.73E-15 5.42E-15 6.13E-15 3.07E-16 2.50E-15 4.37E-15 1.96E-15
 7.60E-16 7.47E-16 1.11E-15 1.32E-14 1.13E-14 1.10E-14 1.11E-14 1.33E-14
 1.33E-14 7.65E-15 3.03E-14 2.40E-14
   0.1875 -0.4375  0.0625    1  1.16202E-13 kpt; spin; max resid(k); each band:
 1.85E-16 6.29E-15 5.37E-15 4.96E-15 3.57E-16 3.62E-15 2.87E-15 1.15E-15
 1.03E-15 5.27E-16 9.23E-16 1.50E-14 1.76E-14 5.37E-15 1.88E-14 3.73E-14
 1.68E-14 3.24E-14 5.60E-14 1.16E-13
   0.3125 -0.4375  0.0625    1  1.01048E-12 kpt; spin; max resid(k); each band:
 1.49E-16 6.75E-15 6.52E-15 5.82E-15 3.32E-16 5.54E-15 1.77E-15 1.66E-15
 2.61E-15 7.87E-16 7.12E-16 1.91E-14 1.25E-14 9.26E-15 4.53E-14 3.48E-14
 5.75E-14 8.59E-14 5.07E-13 1.01E-12
   0.4375 -0.4375  0.0625    1  1.28446E-11 kpt; spin; max resid(k); each band:
 1.20E-16 6.90E-15 6.80E-15 6.28E-15 1.87E-16 8.89E-15 8.08E-16 1.32E-15
 1.25E-15 2.32E-15 4.93E-16 1.35E-14 8.58E-15 7.03E-15 1.16E-13 9.32E-14
 5.48E-14 9.47E-13 1.28E-11 1.21E-11
  -0.4375 -0.4375  0.0625    1  1.28446E-11 kpt; spin; max resid(k); each band:
 1.20E-16 6.90E-15 6.80E-15 6.28E-15 1.87E-16 8.89E-15 8.08E-16 1.32E-15
 1.25E-15 2.32E-15 4.93E-16 1.35E-14 8.58E-15 7.03E-15 1.16E-13 9.31E-14
 5.48E-14 9.47E-13 1.28E-11 1.21E-11
  -0.3125 -0.4375  0.0625    1  1.01051E-12 kpt; spin; max resid(k); each band:
 1.49E-16 6.75E-15 6.52E-15 5.82E-15 3.32E-16 5.54E-15 1.77E-15 1.66E-15
 2.61E-15 7.87E-16 7.12E-16 1.91E-14 1.25E-14 9.26E-15 4.53E-14 3.49E-14
 5.75E-14 8.59E-14 5.07E-13 1.01E-12
  -0.1875 -0.4375  0.0625    1  1.16179E-13 kpt; spin; max resid(k); each band:
 1.85E-16 6.29E-15 5.37E-15 4.96E-15 3.57E-16 3.62E-15 2.87E-15 1.15E-15
 1.03E-15 5.27E-16 9.23E-16 1.50E-14 1.76E-14 5.37E-15 1.88E-14 3.73E-14
 1.68E-14 3.24E-14 5.59E-14 1.16E-13
  -0.0625 -0.4375  0.0625    1  3.03378E-14 kpt; spin; max resid(k); each band:
 1.78E-16 5.73E-15 5.42E-15 6.13E-15 3.07E-16 2.50E-15 4.37E-15 1.96E-15
 7.60E-16 7.47E-16 1.11E-15 1.32E-14 1.13E-14 1.10E-14 1.11E-14 1.33E-14
 1.33E-14 7.65E-15 3.03E-14 2.40E-14
   0.0625 -0.3125  0.0625    1  2.26992E-14 kpt; spin; max resid(k); each band:
 6.19E-17 5.49E-15 5.25E-15 5.88E-15 3.45E-16 2.57E-15 3.78E-15 1.62E-15
 6.97E-16 6.76E-16 9.18E-16 6.36E-15 6.62E-15 1.10E-14 4.27E-15 1.16E-14
 7.41E-15 1.28E-14 2.04E-14 2.27E-14
   0.1875 -0.3125  0.0625    1  1.22315E-13 kpt; spin; max resid(k); each band:
 1.87E-16 6.43E-15 4.75E-15 5.36E-15 4.59E-16 4.28E-15 2.85E-15 7.74E-16
 8.13E-16 1.08E-15 9.00E-16 8.45E-15 3.85E-15 6.58E-15 1.71E-14 2.38E-14
 2.43E-14 1.34E-14 4.42E-14 1.22E-13
   0.3125 -0.3125  0.0625    1  2.29775E-13 kpt; spin; max resid(k); each band:
 1.80E-16 6.12E-15 5.29E-15 5.88E-15 2.32E-16 4.36E-15 6.89E-16 1.16E-15
 7.86E-16 5.75E-16 1.57E-15 1.74E-14 2.47E-15 1.45E-14 2.73E-14 5.40E-14
 3.53E-14 5.58E-14 5.80E-14 2.30E-13
   0.4375 -0.3125  0.0625    1  4.04121E-13 kpt; spin; max resid(k); each band:
 9.34E-17 5.43E-15 6.04E-15 5.92E-15 2.25E-16 4.32E-15 1.06E-15 4.59E-16
 9.12E-16 1.18E-15 5.84E-16 1.67E-14 1.02E-14 5.22E-15 1.01E-14 5.15E-14
 4.12E-14 2.74E-13 4.04E-13 2.30E-13
  -0.4375 -0.3125  0.0625    1  4.04122E-13 kpt; spin; max resid(k); each band:
 9.34E-17 5.43E-15 6.04E-15 5.92E-15 2.25E-16 4.32E-15 1.06E-15 4.59E-16
 9.12E-16 1.18E-15 5.84E-16 1.67E-14 1.02E-14 5.22E-15 1.01E-14 5.14E-14
 4.12E-14 2.74E-13 4.04E-13 2.30E-13
  -0.3125 -0.3125  0.0625    1  2.29769E-13 kpt; spin; max resid(k); each band:
 1.80E-16 6.12E-15 5.29E-15 5.88E-15 2.32E-16 4.36E-15 6.89E-16 1.16E-15
 7.86E-16 5.75E-16 1.57E-15 1.74E-14 2.47E-15 1.45E-14 2.73E-14 5.40E-14
 3.53E-14 5.58E-14 5.80E-14 2.30E-13
  -0.1875 -0.3125  0.0625    1  1.22295E-13 kpt; spin; max resid(k); each band:
 1.87E-16 6.43E-15 4.75E-15 5.36E-15 4.59E-16 4.28E-15 2.85E-15 7.74E-16
 8.13E-16 1.08E-15 9.00E-16 8.45E-15 3.85E-15 6.58E-15 1.71E-14 2.38E-14
 2.43E-14 1.34E-14 4.42E-14 1.22E-13
  -0.0625 -0.3125  0.0625    1  2.26999E-14 kpt; spin; max resid(k); each band:
 6.19E-17 5.49E-15 5.25E-15 5.88E-15 3.45E-16 2.57E-15 3.78E-15 1.62E-15
 6.97E-16 6.76E-16 9.18E-16 6.36E-15 6.62E-15 1.10E-14 4.31E-15 1.16E-14
 7.41E-15 1.28E-14 2.04E-14 2.27E-14
   0.0625 -0.1875  0.0625    1  3.07107E-14 kpt; spin; max resid(k); each band:
 1.58E-16 5.56E-15 5.90E-15 5.56E-15 3.93E-16 3.60E-15 1.46E-15 6.32E-16
 5.96E-16 6.64E-16 6.49E-16 7.74E-15 4.86E-15 1.40E-14 6.46E-15 2.72E-14
 7.57E-15 1.97E-14 2.87E-14 3.07E-14
   0.1875 -0.1875  0.0625    1  1.51994E-13 kpt; spin; max resid(k); each band:
 1.69E-16 5.07E-15 5.75E-15 5.79E-15 6.04E-16 3.83E-15 9.47E-16 9.80E-16
 7.36E-16 4.18E-16 1.09E-15 1.04E-14 3.80E-15 2.43E-14 1.43E-14 3.48E-14
 3.45E-14 2.08E-14 5.27E-14 1.52E-13
 outwf : prtvol=0 or 1, do not print more k-points.


 Thirteen components of 2nd-order total energy (hartree) are
 1,2,3: 0th-order hamiltonian combined with 1st-order wavefunctions
     kin0=   8.27417561E+02 eigvalue=   4.04114525E+01  local=  -4.57728886E+02
 4,5,6: 1st-order hamiltonian combined with 1st and 0th-order wfs
 loc psp =   3.65023938E+02  Hartree=   2.42302550E+02     xc=  -6.94178348E+01
 note that "loc psp" includes a xc core correction that could be resolved
 7,8,9: eventually, occupation + non-local contributions
    edocc=   0.00000000E+00     enl0=   3.54336243E+02   enl1=  -2.23966611E+03
 1-9 gives the relaxation energy (to be shifted if some occ is /=2.0)
   erelax=  -9.37321084E+02
 10,11,12 Non-relaxation  contributions : frozen-wavefunctions and Ewald
 fr.local=  -4.05686417E+02 fr.nonlo=   1.12361517E+03  Ewald=   2.25100208E+02
 13,14 Frozen wf xc core corrections (1) and (2)
 frxc 1  =   0.00000000E+00  frxc 2 =   0.00000000E+00
 Resulting in :
 2DEtotal=    0.5707876386E+01 Ha. Also 2DEtotal=    0.155319215378E+03 eV
    (2DErelax=   -9.3732108393E+02 Ha. 2DEnonrelax=    9.4302896031E+02 Ha)
    (  non-var. 2DEtotal :    5.7078751893E+00 Ha)


--------------------------------------------------------------------------------
 Perturbation wavevector (in red.coord.)   0.500000  0.500000  0.500000
 Perturbation : displacement of atom   2   along direction   1
 Found     2 symmetries that leave the perturbation invariant.
 symkpt : the number of k-points, thanks to the symmetries,
 is reduced to   288 .

--------------------------------------------------------------------------------

-inwffil : will read wavefunctions from disk file perovskite-Gamma_o_DS1_WFK
- newkpt: read input wf with ikpt,npw=   1    4996, make ikpt,npw=   1    4996
- newkpt: read input wf with ikpt,npw=   2    4976, make ikpt,npw=   2    4976
- newkpt: read input wf with ikpt,npw=   3    4998, make ikpt,npw=   3    4998
- newkpt: read input wf with ikpt,npw=   4    4986, make ikpt,npw=   4    4986
- newkpt: read input wf with ikpt,npw=   4    4986, make ikpt,npw=   5    4986
- newkpt: read input wf with ikpt,npw=   3    4998, make ikpt,npw=   6    4998
- newkpt: read input wf with ikpt,npw=   2    4976, make ikpt,npw=   7    4976
- newkpt: read input wf with ikpt,npw=   1    4996, make ikpt,npw=   8    4996
- newkpt: read input wf with ikpt,npw=   2    4976, make ikpt,npw=   9    4976
- newkpt: read input wf with ikpt,npw=   5    4985, make ikpt,npw=  10    4985
- newkpt: read input wf with ikpt,npw=   6    5000, make ikpt,npw=  11    5000
- newkpt: read input wf with ikpt,npw=   7    4987, make ikpt,npw=  12    4987
- newkpt: read input wf with ikpt,npw=   7    4987, make ikpt,npw=  13    4987
- newkpt: read input wf with ikpt,npw=   6    5000, make ikpt,npw=  14    5000
- newkpt: read input wf with ikpt,npw=   5    4985, make ikpt,npw=  15    4985
- newkpt: read input wf with ikpt,npw=   2    4976, make ikpt,npw=  16    4976
- newkpt: read input wf with ikpt,npw=   3    4998, make ikpt,npw=  17    4998
- newkpt: read input wf with ikpt,npw=   6    5000, make ikpt,npw=  18    5000
- newkpt: read input wf with ikpt,npw=   8    4973, make ikpt,npw=  19    4973
- newkpt: read input wf with ikpt,npw=   9    4983, make ikpt,npw=  20    4983
- newkpt: read input wf with ikpt,npw=   9    4983, make ikpt,npw=  21    4983
- newkpt: read input wf with ikpt,npw=   8    4973, make ikpt,npw=  22    4973
- newkpt: read input wf with ikpt,npw=   6    5000, make ikpt,npw=  23    5000
- newkpt: read input wf with ikpt,npw=   3    4998, make ikpt,npw=  24    4998
- newkpt: read input wf with ikpt,npw=   4    4986, make ikpt,npw=  25    4986
- newkpt: read input wf with ikpt,npw=   7    4987, make ikpt,npw=  26    4987
- newkpt: read input wf with ikpt,npw=   9    4983, make ikpt,npw=  27    4983
- newkpt: read input wf with ikpt,npw=  10    4989, make ikpt,npw=  28    4989
- newkpt: read input wf with ikpt,npw=  10    4989, make ikpt,npw=  29    4989
- newkpt: read input wf with ikpt,npw=   9    4983, make ikpt,npw=  30    4983
- newkpt: read input wf with ikpt,npw=   7    4987, make ikpt,npw=  31    4987
- newkpt: read input wf with ikpt,npw=   4    4986, make ikpt,npw=  32    4986
- newkpt: read input wf with ikpt,npw=   4    4986, make ikpt,npw=  33    4986
- newkpt: read input wf with ikpt,npw=   7    4987, make ikpt,npw=  34    4987
- newkpt: read input wf with ikpt,npw=   9    4983, make ikpt,npw=  35    4983
- newkpt: read input wf with ikpt,npw=  10    4989, make ikpt,npw=  36    4989
- newkpt: read input wf with ikpt,npw=  10    4989, make ikpt,npw=  37    4989
- newkpt: read input wf with ikpt,npw=   9    4983, make ikpt,npw=  38    4983
- newkpt: read input wf with ikpt,npw=   7    4987, make ikpt,npw=  39    4987
- newkpt: read input wf with ikpt,npw=   4    4986, make ikpt,npw=  40    4986
- newkpt: read input wf with ikpt,npw=   3    4998, make ikpt,npw=  41    4998
- newkpt: read input wf with ikpt,npw=   6    5000, make ikpt,npw=  42    5000
- newkpt: read input wf with ikpt,npw=   8    4973, make ikpt,npw=  43    4973
- newkpt: read input wf with ikpt,npw=   9    4983, make ikpt,npw=  44    4983
- newkpt: read input wf with ikpt,npw=   9    4983, make ikpt,npw=  45    4983
- newkpt: read input wf with ikpt,npw=   8    4973, make ikpt,npw=  46    4973
- newkpt: read input wf with ikpt,npw=   6    5000, make ikpt,npw=  47    5000
- newkpt: read input wf with ikpt,npw=   3    4998, make ikpt,npw=  48    4998
- newkpt: read input wf with ikpt,npw=   2    4976, make ikpt,npw=  49    4976
- newkpt: read input wf with ikpt,npw=   5    4985, make ikpt,npw=  50    4985
- newkpt : prtvol=0 or 1, do not print more k-points.
 
--------------------------------------------------------------------------------

-inwffil : will read wavefunctions from disk file perovskite-Gamma_o_DS1_WFK
- newkpt: read input wf with ikpt,npw=  20    4935, make ikpt,npw=   1    4935
- newkpt: read input wf with ikpt,npw=  19    4953, make ikpt,npw=   2    4953
- newkpt: read input wf with ikpt,npw=  16    4983, make ikpt,npw=   3    4983
- newkpt: read input wf with ikpt,npw=  10    4989, make ikpt,npw=   4    4989
- newkpt: read input wf with ikpt,npw=  10    4989, make ikpt,npw=   5    4989
- newkpt: read input wf with ikpt,npw=  16    4983, make ikpt,npw=   6    4983
- newkpt: read input wf with ikpt,npw=  19    4953, make ikpt,npw=   7    4953
- newkpt: read input wf with ikpt,npw=  20    4935, make ikpt,npw=   8    4935
- newkpt: read input wf with ikpt,npw=  19    4953, make ikpt,npw=   9    4953
- newkpt: read input wf with ikpt,npw=  18    4975, make ikpt,npw=  10    4975
- newkpt: read input wf with ikpt,npw=  15    4981, make ikpt,npw=  11    4981
- newkpt: read input wf with ikpt,npw=   9    4983, make ikpt,npw=  12    4983
- newkpt: read input wf with ikpt,npw=   9    4983, make ikpt,npw=  13    4983
- newkpt: read input wf with ikpt,npw=  15    4981, make ikpt,npw=  14    4981
- newkpt: read input wf with ikpt,npw=  18    4975, make ikpt,npw=  15    4975
- newkpt: read input wf with ikpt,npw=  19    4953, make ikpt,npw=  16    4953
- newkpt: read input wf with ikpt,npw=  16    4983, make ikpt,npw=  17    4983
- newkpt: read input wf with ikpt,npw=  15    4981, make ikpt,npw=  18    4981
- newkpt: read input wf with ikpt,npw=  13    4996, make ikpt,npw=  19    4996
- newkpt: read input wf with ikpt,npw=   7    4987, make ikpt,npw=  20    4987
- newkpt: read input wf with ikpt,npw=   7    4987, make ikpt,npw=  21    4987
- newkpt: read input wf with ikpt,npw=  13    4996, make ikpt,npw=  22    4996
- newkpt: read input wf with ikpt,npw=  15    4981, make ikpt,npw=  23    4981
- newkpt: read input wf with ikpt,npw=  16    4983, make ikpt,npw=  24    4983
- newkpt: read input wf with ikpt,npw=  10    4989, make ikpt,npw=  25    4989
- newkpt: read input wf with ikpt,npw=   9    4983, make ikpt,npw=  26    4983
- newkpt: read input wf with ikpt,npw=   7    4987, make ikpt,npw=  27    4987
- newkpt: read input wf with ikpt,npw=   4    4986, make ikpt,npw=  28    4986
- newkpt: read input wf with ikpt,npw=   4    4986, make ikpt,npw=  29    4986
- newkpt: read input wf with ikpt,npw=   7    4987, make ikpt,npw=  30    4987
- newkpt: read input wf with ikpt,npw=   9    4983, make ikpt,npw=  31    4983
- newkpt: read input wf with ikpt,npw=  10    4989, make ikpt,npw=  32    4989
- newkpt: read input wf with ikpt,npw=  10    4989, make ikpt,npw=  33    4989
- newkpt: read input wf with ikpt,npw=   9    4983, make ikpt,npw=  34    4983
- newkpt: read input wf with ikpt,npw=   7    4987, make ikpt,npw=  35    4987
- newkpt: read input wf with ikpt,npw=   4    4986, make ikpt,npw=  36    4986
- newkpt: read input wf with ikpt,npw=   4    4986, make ikpt,npw=  37    4986
- newkpt: read input wf with ikpt,npw=   7    4987, make ikpt,npw=  38    4987
- newkpt: read input wf with ikpt,npw=   9    4983, make ikpt,npw=  39    4983
- newkpt: read input wf with ikpt,npw=  10    4989, make ikpt,npw=  40    4989
- newkpt: read input wf with ikpt,npw=  16    4983, make ikpt,npw=  41    4983
- newkpt: read input wf with ikpt,npw=  15    4981, make ikpt,npw=  42    4981
- newkpt: read input wf with ikpt,npw=  13    4996, make ikpt,npw=  43    4996
- newkpt: read input wf with ikpt,npw=   7    4987, make ikpt,npw=  44    4987
- newkpt: read input wf with ikpt,npw=   7    4987, make ikpt,npw=  45    4987
- newkpt: read input wf with ikpt,npw=  13    4996, make ikpt,npw=  46    4996
- newkpt: read input wf with ikpt,npw=  15    4981, make ikpt,npw=  47    4981
- newkpt: read input wf with ikpt,npw=  16    4983, make ikpt,npw=  48    4983
- newkpt: read input wf with ikpt,npw=  19    4953, make ikpt,npw=  49    4953
- newkpt: read input wf with ikpt,npw=  18    4975, make ikpt,npw=  50    4975
- newkpt : prtvol=0 or 1, do not print more k-points.
 
 Initialisation of the first-order wave-functions :
  ireadwf=   0
P newkpt: treating     20 bands with npw=    4935 for ikpt=   1
P newkpt: treating     20 bands with npw=    4953 for ikpt=   2
P newkpt: treating     20 bands with npw=    4983 for ikpt=   3
P newkpt: treating     20 bands with npw=    4989 for ikpt=   4
P newkpt: treating     20 bands with npw=    4989 for ikpt=   5
P newkpt: treating     20 bands with npw=    4983 for ikpt=   6
P newkpt: treating     20 bands with npw=    4953 for ikpt=   7
P newkpt: treating     20 bands with npw=    4935 for ikpt=   8
P newkpt: treating     20 bands with npw=    4953 for ikpt=   9
P newkpt: treating     20 bands with npw=    4975 for ikpt=  10
P newkpt: treating     20 bands with npw=    4981 for ikpt=  11
P newkpt: treating     20 bands with npw=    4983 for ikpt=  12
P newkpt: treating     20 bands with npw=    4983 for ikpt=  13
P newkpt: treating     20 bands with npw=    4981 for ikpt=  14
P newkpt: treating     20 bands with npw=    4975 for ikpt=  15
P newkpt: treating     20 bands with npw=    4953 for ikpt=  16
P newkpt: treating     20 bands with npw=    4983 for ikpt=  17
P newkpt: treating     20 bands with npw=    4981 for ikpt=  18
P newkpt: treating     20 bands with npw=    4996 for ikpt=  19
P newkpt: treating     20 bands with npw=    4987 for ikpt=  20
P newkpt: treating     20 bands with npw=    4987 for ikpt=  21
P newkpt: treating     20 bands with npw=    4996 for ikpt=  22
P newkpt: treating     20 bands with npw=    4981 for ikpt=  23
P newkpt: treating     20 bands with npw=    4983 for ikpt=  24
P newkpt: treating     20 bands with npw=    4989 for ikpt=  25
P newkpt: treating     20 bands with npw=    4983 for ikpt=  26
P newkpt: treating     20 bands with npw=    4987 for ikpt=  27
P newkpt: treating     20 bands with npw=    4986 for ikpt=  28
P newkpt: treating     20 bands with npw=    4986 for ikpt=  29
P newkpt: treating     20 bands with npw=    4987 for ikpt=  30
P newkpt: treating     20 bands with npw=    4983 for ikpt=  31
P newkpt: treating     20 bands with npw=    4989 for ikpt=  32
P newkpt: treating     20 bands with npw=    4989 for ikpt=  33
P newkpt: treating     20 bands with npw=    4983 for ikpt=  34
P newkpt: treating     20 bands with npw=    4987 for ikpt=  35
P newkpt: treating     20 bands with npw=    4986 for ikpt=  36
P newkpt: treating     20 bands with npw=    4986 for ikpt=  37
P newkpt: treating     20 bands with npw=    4987 for ikpt=  38
P newkpt: treating     20 bands with npw=    4983 for ikpt=  39
P newkpt: treating     20 bands with npw=    4989 for ikpt=  40
P newkpt: treating     20 bands with npw=    4983 for ikpt=  41
P newkpt: treating     20 bands with npw=    4981 for ikpt=  42
P newkpt: treating     20 bands with npw=    4996 for ikpt=  43
P newkpt: treating     20 bands with npw=    4987 for ikpt=  44
P newkpt: treating     20 bands with npw=    4987 for ikpt=  45
P newkpt: treating     20 bands with npw=    4996 for ikpt=  46
P newkpt: treating     20 bands with npw=    4981 for ikpt=  47
P newkpt: treating     20 bands with npw=    4983 for ikpt=  48
P newkpt: treating     20 bands with npw=    4953 for ikpt=  49
P newkpt: treating     20 bands with npw=    4975 for ikpt=  50
  newkpt: prtvol=0 or 1, do not print more k-points.
 

     iter   2DEtotal(Ha)        deltaE(Ha) residm    vres2
-ETOT  1   3073.6798632457     -1.763E+03 1.581E+02 1.414E+07
 ETOT  2   278.14990336624     -2.796E+03 1.023E+02 2.930E+05
 ETOT  3   157.36851056332     -1.208E+02 7.158E+00 3.505E+05
 ETOT  4   85.413550774504     -7.195E+01 8.882E+00 3.701E+05
 ETOT  5   22.182770215329     -6.323E+01 1.045E+00 2.976E+04
 ETOT  6   17.910742394076     -4.272E+00 1.085E+00 1.994E+03
 ETOT  7   17.722122106151     -1.886E-01 4.118E-02 1.273E+03
 ETOT  8   17.613659771319     -1.085E-01 1.756E-02 1.095E+03
 ETOT  9   17.843760084106      2.301E-01 6.708E-03 1.594E+03
 ETOT 10   17.784984132820     -5.878E-02 2.629E-03 1.178E+03
 ETOT 11   18.137187493777      3.522E-01 1.092E-02 2.497E+03
 ETOT 12   17.076750600545     -1.060E+00 1.879E-02 1.012E+02
 ETOT 13   17.040995674653     -3.575E-02 9.433E-03 6.166E+01
 ETOT 14   17.040895356365     -1.003E-04 3.031E-03 6.152E+01
 ETOT 15   17.046005770130      5.110E-03 1.341E-03 1.191E+02
 ETOT 16   17.036903605680     -9.102E-03 7.946E-05 4.888E+01
 ETOT 17   17.034224588256     -2.679E-03 6.058E-05 9.669E+00
 ETOT 18   17.033808649786     -4.159E-04 1.952E-06 1.355E+01
 ETOT 19   17.033719181747     -8.947E-05 1.225E-06 1.856E+01
 ETOT 20   17.032947235280     -7.719E-04 2.155E-06 1.377E+01
 ETOT 21   17.031742918919     -1.204E-03 4.420E-06 6.411E-02
 ETOT 22   17.031712486518     -3.043E-05 6.715E-07 2.452E-02
 ETOT 23   17.031703905266     -8.581E-06 1.343E-07 1.032E-02
 ETOT 24   17.031702809863     -1.095E-06 1.756E-08 7.677E-03
 ETOT 25   17.031700826246     -1.984E-06 1.142E-08 2.244E-03
 ETOT 26   17.031700417369     -4.089E-07 1.606E-09 7.597E-04
 ETOT 27   17.031700396012     -2.136E-08 1.926E-10 4.146E-04
 ETOT 28   17.031700361026     -3.499E-08 5.150E-11 1.603E-04
 ETOT 29   17.031700345827     -1.520E-08 9.136E-11 1.325E-05
 ETOT 30   17.031700340553     -5.274E-09 5.391E-11 4.310E-06
 ETOT 31   17.031700340096     -4.566E-10 8.646E-13 7.052E-07
 ETOT 32   17.031700339982     -1.146E-10 7.829E-13 1.215E-07
 ETOT 33   17.031700339999      1.728E-11 1.411E-13 7.442E-09

 At SCF step   33       vres2   =  7.44E-09 < tolvrs=  1.00E-08 =>converged.
================================================================================

 ----iterations are completed or convergence reached----

 Mean square residual over all n,k,spin=   9.2270E-15; max=  1.4112E-13
   0.0625  0.0625  0.0625    1  4.76613E-14 kpt; spin; max resid(k); each band:
 4.08E-17 2.11E-16 2.27E-17 1.98E-16 3.13E-17 5.49E-17 4.98E-17 1.12E-16
 2.49E-16 1.52E-16 2.52E-16 1.99E-15 5.12E-16 1.52E-15 3.72E-14 1.66E-14
 7.50E-15 4.09E-14 3.41E-14 4.77E-14
   0.1875  0.0625  0.0625    1  3.92515E-14 kpt; spin; max resid(k); each band:
 4.60E-17 7.30E-17 6.29E-17 1.40E-17 5.21E-17 5.50E-17 4.50E-17 5.67E-16
 7.24E-17 2.01E-16 2.41E-16 3.76E-15 2.10E-15 9.57E-16 1.28E-14 3.80E-14
 9.31E-15 1.22E-14 3.93E-14 1.15E-14
   0.3125  0.0625  0.0625    1  2.94586E-14 kpt; spin; max resid(k); each band:
 5.20E-17 7.10E-17 6.94E-18 4.19E-17 7.46E-17 3.10E-17 4.46E-17 1.34E-15
 9.56E-17 4.35E-17 2.57E-16 9.03E-15 7.32E-15 8.12E-15 2.19E-14 1.09E-14
 2.40E-14 8.15E-15 2.95E-14 2.28E-14
   0.4375  0.0625  0.0625    1  2.59382E-14 kpt; spin; max resid(k); each band:
 4.96E-17 5.57E-17 1.61E-17 7.30E-18 9.06E-17 2.23E-17 4.17E-17 1.74E-15
 2.25E-17 4.33E-17 1.59E-16 4.17E-15 9.70E-15 7.13E-15 2.00E-15 1.30E-14
 7.28E-15 2.68E-15 2.59E-14 1.40E-14
  -0.4375  0.0625  0.0625    1  2.61364E-14 kpt; spin; max resid(k); each band:
 4.96E-17 5.57E-17 1.61E-17 7.30E-18 9.06E-17 2.24E-17 4.17E-17 1.74E-15
 2.26E-17 4.34E-17 1.58E-16 4.11E-15 9.71E-15 7.15E-15 2.02E-15 1.30E-14
 7.37E-15 2.70E-15 2.61E-14 1.34E-14
  -0.3125  0.0625  0.0625    1  2.95288E-14 kpt; spin; max resid(k); each band:
 5.20E-17 7.10E-17 6.93E-18 4.19E-17 7.46E-17 3.11E-17 4.46E-17 1.33E-15
 9.63E-17 4.38E-17 2.58E-16 9.21E-15 7.28E-15 8.16E-15 2.21E-14 1.10E-14
 2.32E-14 8.08E-15 2.95E-14 2.28E-14
  -0.1875  0.0625  0.0625    1  3.92983E-14 kpt; spin; max resid(k); each band:
 4.60E-17 7.30E-17 6.29E-17 1.40E-17 5.21E-17 5.51E-17 4.50E-17 5.66E-16
 7.27E-17 2.02E-16 2.42E-16 3.75E-15 2.10E-15 9.57E-16 1.28E-14 3.81E-14
 9.69E-15 1.21E-14 3.93E-14 1.15E-14
  -0.0625  0.0625  0.0625    1  4.76720E-14 kpt; spin; max resid(k); each band:
 4.08E-17 2.11E-16 2.27E-17 1.98E-16 3.13E-17 5.49E-17 4.97E-17 1.12E-16
 2.49E-16 1.52E-16 2.52E-16 1.99E-15 5.12E-16 1.52E-15 3.72E-14 1.67E-14
 7.51E-15 4.09E-14 3.41E-14 4.77E-14
   0.0625  0.1875  0.0625    1  4.67168E-14 kpt; spin; max resid(k); each band:
 4.73E-17 5.35E-17 3.85E-16 3.68E-16 4.87E-17 1.29E-16 1.60E-16 3.73E-16
 1.15E-16 1.59E-16 2.37E-16 1.31E-15 2.38E-15 3.78E-15 2.67E-14 2.20E-14
 2.50E-14 4.57E-14 4.67E-14 3.87E-14
   0.1875  0.1875  0.0625    1  4.36935E-14 kpt; spin; max resid(k); each band:
 4.73E-17 1.81E-16 9.32E-17 7.20E-17 5.53E-17 1.50E-16 6.25E-16 2.86E-16
 2.18E-17 1.94E-16 4.66E-16 1.93E-15 6.94E-15 3.99E-15 2.55E-14 3.28E-14
 1.50E-14 2.70E-14 4.37E-14 4.14E-14
   0.3125  0.1875  0.0625    1  3.00417E-14 kpt; spin; max resid(k); each band:
 5.29E-17 9.29E-17 2.76E-17 6.16E-17 6.60E-17 9.85E-17 3.89E-16 1.57E-15
 2.73E-17 1.48E-16 5.09E-16 5.62E-15 9.43E-15 1.99E-14 1.24E-14 1.68E-14
 5.30E-15 2.00E-14 2.67E-14 3.00E-14
   0.4375  0.1875  0.0625    1  1.50267E-14 kpt; spin; max resid(k); each band:
 5.35E-17 7.16E-17 1.10E-17 2.72E-17 7.11E-17 8.52E-17 2.08E-16 2.93E-15
 7.92E-17 1.70E-16 3.42E-16 6.17E-15 2.24E-15 1.42E-14 5.02E-15 5.99E-15
 9.50E-15 1.50E-14 1.10E-14 1.13E-14
  -0.4375  0.1875  0.0625    1  1.47733E-14 kpt; spin; max resid(k); each band:
 5.35E-17 7.16E-17 1.10E-17 2.72E-17 7.11E-17 8.52E-17 2.08E-16 2.92E-15
 7.92E-17 1.70E-16 3.43E-16 5.31E-15 2.23E-15 1.41E-14 5.08E-15 6.01E-15
 9.48E-15 1.48E-14 1.11E-14 1.13E-14
  -0.3125  0.1875  0.0625    1  2.99798E-14 kpt; spin; max resid(k); each band:
 5.29E-17 9.29E-17 2.76E-17 6.16E-17 6.60E-17 9.86E-17 3.89E-16 1.57E-15
 2.72E-17 1.48E-16 5.10E-16 5.60E-15 9.37E-15 1.99E-14 1.24E-14 1.70E-14
 5.30E-15 2.00E-14 2.68E-14 3.00E-14
  -0.1875  0.1875  0.0625    1  4.37624E-14 kpt; spin; max resid(k); each band:
 4.73E-17 1.81E-16 9.32E-17 7.20E-17 5.53E-17 1.50E-16 6.24E-16 2.86E-16
 2.19E-17 1.94E-16 4.67E-16 1.93E-15 6.92E-15 4.00E-15 2.56E-14 3.29E-14
 1.50E-14 2.71E-14 4.38E-14 4.14E-14
  -0.0625  0.1875  0.0625    1  4.66478E-14 kpt; spin; max resid(k); each band:
 4.73E-17 5.35E-17 3.85E-16 3.68E-16 4.87E-17 1.29E-16 1.60E-16 3.73E-16
 1.15E-16 1.59E-16 2.38E-16 1.31E-15 2.37E-15 3.78E-15 2.67E-14 2.20E-14
 2.49E-14 4.57E-14 4.66E-14 3.87E-14
   0.0625  0.3125  0.0625    1  4.39111E-14 kpt; spin; max resid(k); each band:
 6.00E-17 3.49E-17 4.27E-16 4.22E-16 6.33E-17 1.45E-16 1.76E-16 5.88E-16
 1.28E-16 1.02E-16 1.26E-16 7.07E-16 9.12E-15 9.61E-15 1.89E-14 2.52E-14
 3.18E-14 3.62E-14 4.39E-14 3.99E-14
   0.1875  0.3125  0.0625    1  5.41182E-14 kpt; spin; max resid(k); each band:
 5.34E-17 2.95E-17 8.73E-17 6.64E-17 6.05E-17 1.99E-16 6.72E-16 5.58E-16
 1.36E-16 1.67E-16 3.16E-16 2.07E-15 2.11E-14 2.97E-14 1.54E-14 1.53E-14
 1.88E-14 2.45E-14 4.87E-14 5.41E-14
   0.3125  0.3125  0.0625    1  7.79330E-14 kpt; spin; max resid(k); each band:
 5.74E-17 2.06E-16 5.04E-17 6.56E-17 5.53E-17 2.05E-16 1.29E-15 8.39E-16
 1.36E-16 4.73E-16 4.99E-16 5.34E-15 1.77E-14 2.91E-14 2.20E-15 1.04E-14
 1.75E-14 3.71E-14 1.62E-14 7.79E-14
   0.4375  0.3125  0.0625    1  3.79164E-14 kpt; spin; max resid(k); each band:
 5.91E-17 8.36E-17 7.57E-18 4.34E-17 5.16E-17 1.42E-16 7.41E-16 2.17E-15
 1.15E-16 8.49E-16 2.67E-16 7.57E-15 2.92E-15 1.47E-14 4.25E-15 2.88E-15
 3.79E-14 1.07E-14 7.49E-15 1.49E-14
  -0.4375  0.3125  0.0625    1  3.79673E-14 kpt; spin; max resid(k); each band:
 5.91E-17 8.36E-17 7.57E-18 4.33E-17 5.16E-17 1.42E-16 7.41E-16 2.17E-15
 1.15E-16 8.50E-16 2.67E-16 7.56E-15 2.91E-15 1.47E-14 4.30E-15 2.91E-15
 3.80E-14 1.07E-14 7.49E-15 1.50E-14
  -0.3125  0.3125  0.0625    1  7.77418E-14 kpt; spin; max resid(k); each band:
 5.74E-17 2.14E-16 5.05E-17 6.56E-17 5.53E-17 2.06E-16 1.29E-15 8.39E-16
 1.36E-16 4.75E-16 5.00E-16 5.36E-15 1.76E-14 2.92E-14 2.20E-15 1.05E-14
 1.76E-14 3.72E-14 1.62E-14 7.77E-14
  -0.1875  0.3125  0.0625    1  5.40960E-14 kpt; spin; max resid(k); each band:
 5.34E-17 2.95E-17 8.74E-17 6.64E-17 6.05E-17 1.99E-16 6.71E-16 5.58E-16
 1.37E-16 1.67E-16 3.17E-16 2.07E-15 2.11E-14 2.98E-14 1.55E-14 1.54E-14
 1.89E-14 2.45E-14 4.87E-14 5.41E-14
  -0.0625  0.3125  0.0625    1  4.39225E-14 kpt; spin; max resid(k); each band:
 6.01E-17 3.49E-17 4.27E-16 4.22E-16 6.33E-17 1.45E-16 1.76E-16 5.88E-16
 1.28E-16 1.03E-16 1.27E-16 7.04E-16 9.13E-15 9.62E-15 1.89E-14 2.52E-14
 3.17E-14 3.62E-14 4.39E-14 3.99E-14
   0.0625  0.4375  0.0625    1  4.97224E-14 kpt; spin; max resid(k); each band:
 6.55E-17 1.45E-17 4.51E-16 4.27E-16 8.06E-17 8.16E-17 1.53E-16 4.27E-16
 4.99E-17 4.44E-17 6.37E-17 3.54E-16 1.16E-14 7.37E-15 2.07E-14 1.25E-14
 2.39E-14 3.14E-14 4.97E-14 3.82E-14
   0.1875  0.4375  0.0625    1  6.05036E-14 kpt; spin; max resid(k); each band:
 5.68E-17 1.29E-17 1.09E-16 6.01E-17 7.03E-17 2.53E-16 6.70E-16 3.61E-16
 3.58E-16 8.67E-17 2.08E-16 8.29E-16 4.28E-14 7.75E-15 9.72E-15 9.97E-15
 1.46E-14 3.87E-14 3.90E-14 6.05E-14
   0.3125  0.4375  0.0625    1  8.76271E-14 kpt; spin; max resid(k); each band:
 6.08E-17 8.35E-18 8.14E-17 6.41E-17 5.64E-17 3.72E-16 1.52E-15 6.75E-16
 7.20E-16 2.06E-16 2.64E-16 1.11E-15 4.18E-14 1.14E-14 1.98E-15 1.53E-15
 5.35E-14 2.37E-14 1.77E-14 8.76E-14
   0.4375  0.4375  0.0625    1  5.52729E-14 kpt; spin; max resid(k); each band:
 6.39E-17 4.06E-17 4.09E-17 5.02E-17 3.85E-17 1.28E-16 1.79E-15 1.58E-15
 6.60E-16 7.03E-16 3.43E-16 1.35E-15 7.18E-15 5.66E-15 1.69E-15 2.84E-15
 5.53E-14 1.63E-14 7.06E-15 1.28E-14
  -0.4375  0.4375  0.0625    1  5.53352E-14 kpt; spin; max resid(k); each band:
 6.39E-17 4.06E-17 4.09E-17 5.01E-17 3.85E-17 1.28E-16 1.79E-15 1.58E-15
 6.60E-16 7.03E-16 3.44E-16 1.35E-15 7.29E-15 6.03E-15 1.68E-15 2.85E-15
 5.53E-14 1.63E-14 7.07E-15 1.28E-14
  -0.3125  0.4375  0.0625    1  8.75488E-14 kpt; spin; max resid(k); each band:
 6.08E-17 8.35E-18 8.14E-17 6.41E-17 5.64E-17 3.72E-16 1.51E-15 6.75E-16
 7.21E-16 2.06E-16 2.65E-16 1.10E-15 4.18E-14 1.13E-14 1.99E-15 1.53E-15
 5.36E-14 2.37E-14 1.77E-14 8.75E-14
  -0.1875  0.4375  0.0625    1  6.05200E-14 kpt; spin; max resid(k); each band:
 5.68E-17 1.29E-17 1.09E-16 6.01E-17 7.03E-17 2.53E-16 6.69E-16 3.56E-16
 3.59E-16 8.70E-17 2.09E-16 8.21E-16 4.29E-14 7.75E-15 9.77E-15 7.30E-15
 1.46E-14 3.87E-14 3.90E-14 6.05E-14
  -0.0625  0.4375  0.0625    1  4.97457E-14 kpt; spin; max resid(k); each band:
 6.55E-17 1.45E-17 4.51E-16 4.27E-16 8.06E-17 8.16E-17 1.53E-16 4.28E-16
 5.01E-17 4.47E-17 6.35E-17 3.49E-16 1.16E-14 7.39E-15 2.07E-14 1.27E-14
 2.36E-14 3.13E-14 4.97E-14 3.82E-14
   0.0625 -0.4375  0.0625    1  4.98790E-14 kpt; spin; max resid(k); each band:
 6.53E-17 1.38E-17 4.51E-16 4.27E-16 7.39E-17 8.22E-17 1.51E-16 4.69E-16
 5.53E-17 4.28E-17 6.49E-17 3.71E-16 1.05E-14 5.44E-15 2.14E-14 3.56E-14
 2.94E-14 3.30E-14 4.99E-14 3.82E-14
   0.1875 -0.4375  0.0625    1  7.67301E-14 kpt; spin; max resid(k); each band:
 5.68E-17 1.22E-17 1.09E-16 6.01E-17 6.32E-17 2.52E-16 6.63E-16 4.19E-16
 3.64E-16 8.79E-17 2.07E-16 8.35E-16 4.95E-14 7.81E-15 1.13E-14 7.27E-15
 1.57E-14 3.74E-14 4.02E-14 7.67E-14
   0.3125 -0.4375  0.0625    1  5.42299E-14 kpt; spin; max resid(k); each band:
 6.09E-17 8.04E-18 8.23E-17 6.41E-17 5.19E-17 3.71E-16 1.51E-15 6.74E-16
 7.22E-16 2.20E-16 2.67E-16 9.95E-16 1.73E-14 1.01E-14 2.29E-15 1.98E-15
 5.42E-14 1.75E-14 2.07E-14 1.73E-14
   0.4375 -0.4375  0.0625    1  5.54164E-14 kpt; spin; max resid(k); each band:
 6.38E-17 4.07E-17 4.04E-17 5.02E-17 3.68E-17 1.25E-16 1.79E-15 1.58E-15
 6.48E-16 7.02E-16 3.32E-16 1.21E-15 5.34E-15 1.02E-14 1.40E-15 3.35E-15
 5.54E-14 1.85E-14 1.24E-14 4.56E-15
  -0.4375 -0.4375  0.0625    1  5.54674E-14 kpt; spin; max resid(k); each band:
 6.38E-17 4.08E-17 4.04E-17 5.01E-17 3.68E-17 1.25E-16 1.79E-15 1.58E-15
 6.48E-16 7.02E-16 3.32E-16 1.21E-15 5.42E-15 1.02E-14 1.38E-15 3.36E-15
 5.55E-14 1.85E-14 1.23E-14 4.55E-15
  -0.3125 -0.4375  0.0625    1  5.43119E-14 kpt; spin; max resid(k); each band:
 6.09E-17 8.04E-18 8.23E-17 6.41E-17 5.19E-17 3.71E-16 1.51E-15 6.74E-16
 7.23E-16 2.20E-16 2.67E-16 9.90E-16 1.75E-14 1.01E-14 2.31E-15 1.98E-15
 5.43E-14 1.76E-14 2.07E-14 1.72E-14
  -0.1875 -0.4375  0.0625    1  7.65973E-14 kpt; spin; max resid(k); each band:
 5.69E-17 1.22E-17 1.09E-16 6.01E-17 6.32E-17 2.52E-16 6.62E-16 4.16E-16
 3.65E-16 8.83E-17 2.07E-16 8.25E-16 4.96E-14 7.82E-15 1.13E-14 7.28E-15
 1.57E-14 3.75E-14 4.03E-14 7.66E-14
  -0.0625 -0.4375  0.0625    1  4.99000E-14 kpt; spin; max resid(k); each band:
 6.53E-17 1.38E-17 4.51E-16 4.27E-16 7.39E-17 8.22E-17 1.50E-16 4.70E-16
 5.55E-17 4.32E-17 6.48E-17 3.60E-16 1.05E-14 5.45E-15 2.15E-14 3.56E-14
 2.93E-14 3.31E-14 4.99E-14 3.82E-14
   0.0625 -0.3125  0.0625    1  4.57892E-14 kpt; spin; max resid(k); each band:
 5.96E-17 3.38E-17 4.27E-16 4.22E-16 6.61E-17 1.45E-16 1.85E-16 6.19E-16
 1.45E-16 1.13E-16 1.21E-16 5.75E-16 7.66E-15 8.39E-15 1.77E-14 2.46E-14
 2.98E-14 3.57E-14 4.58E-14 4.04E-14
   0.1875 -0.3125  0.0625    1  7.52967E-14 kpt; spin; max resid(k); each band:
 5.35E-17 2.86E-17 9.02E-17 6.64E-17 6.29E-17 1.97E-16 7.05E-16 5.32E-16
 1.37E-16 2.02E-16 2.94E-16 1.96E-15 1.96E-14 2.75E-14 1.88E-14 1.26E-14
 1.99E-14 2.86E-14 4.88E-14 7.53E-14
   0.3125 -0.3125  0.0625    1  3.59171E-14 kpt; spin; max resid(k); each band:
 5.76E-17 6.82E-17 5.05E-17 6.56E-17 5.74E-17 2.02E-16 1.27E-15 8.39E-16
 1.30E-16 5.32E-16 4.60E-16 3.14E-15 1.81E-14 2.38E-14 2.48E-15 1.03E-14
 1.83E-14 3.59E-14 1.69E-14 2.98E-14
   0.4375 -0.3125  0.0625    1  3.81879E-14 kpt; spin; max resid(k); each band:
 5.91E-17 8.18E-17 7.51E-18 4.34E-17 4.99E-17 1.36E-16 7.42E-16 2.17E-15
 1.43E-16 8.71E-16 2.55E-16 6.47E-15 3.04E-15 1.31E-14 3.36E-15 3.17E-15
 3.82E-14 1.23E-14 9.32E-15 1.57E-14
  -0.4375 -0.3125  0.0625    1  3.82308E-14 kpt; spin; max resid(k); each band:
 5.91E-17 8.18E-17 7.51E-18 4.33E-17 4.99E-17 1.36E-16 7.42E-16 2.17E-15
 1.43E-16 8.70E-16 2.55E-16 6.46E-15 3.05E-15 1.33E-14 3.34E-15 3.19E-15
 3.82E-14 1.25E-14 9.32E-15 1.55E-14
  -0.3125 -0.3125  0.0625    1  3.59738E-14 kpt; spin; max resid(k); each band:
 5.76E-17 6.88E-17 5.05E-17 6.56E-17 5.74E-17 2.02E-16 1.27E-15 8.38E-16
 1.30E-16 5.34E-16 4.61E-16 3.15E-15 1.81E-14 2.38E-14 2.48E-15 1.03E-14
 1.83E-14 3.60E-14 1.69E-14 2.98E-14
  -0.1875 -0.3125  0.0625    1  7.52368E-14 kpt; spin; max resid(k); each band:
 5.35E-17 2.86E-17 9.02E-17 6.64E-17 6.29E-17 1.97E-16 7.04E-16 5.32E-16
 1.38E-16 2.03E-16 2.94E-16 1.95E-15 1.96E-14 2.76E-14 1.89E-14 1.26E-14
 1.99E-14 2.86E-14 4.89E-14 7.52E-14
  -0.0625 -0.3125  0.0625    1  4.57974E-14 kpt; spin; max resid(k); each band:
 5.96E-17 3.38E-17 4.27E-16 4.22E-16 6.61E-17 1.45E-16 1.85E-16 6.19E-16
 1.45E-16 1.14E-16 1.21E-16 5.70E-16 7.66E-15 8.39E-15 1.77E-14 2.46E-14
 2.97E-14 3.56E-14 4.58E-14 4.04E-14
   0.0625 -0.1875  0.0625    1  4.86946E-14 kpt; spin; max resid(k); each band:
 4.70E-17 5.29E-17 3.85E-16 3.68E-16 5.25E-17 1.28E-16 1.57E-16 3.76E-16
 1.43E-16 1.71E-16 2.09E-16 9.16E-16 2.95E-15 3.98E-15 2.58E-14 2.30E-14
 2.49E-14 4.24E-14 4.87E-14 3.94E-14
   0.1875 -0.1875  0.0625    1  4.58787E-14 kpt; spin; max resid(k); each band:
 4.76E-17 1.79E-16 9.27E-17 7.20E-17 5.79E-17 1.45E-16 5.94E-16 2.89E-16
 2.38E-17 2.33E-16 4.17E-16 1.81E-15 7.83E-15 3.76E-15 2.36E-14 3.09E-14
 1.67E-14 2.36E-14 3.80E-14 4.59E-14
 outwf : prtvol=0 or 1, do not print more k-points.


 Thirteen components of 2nd-order total energy (hartree) are
 1,2,3: 0th-order hamiltonian combined with 1st-order wavefunctions
     kin0=   7.33801490E+03 eigvalue=   8.46928360E+02  local=  -6.75900778E+03
 4,5,6: 1st-order hamiltonian combined with 1st and 0th-order wfs
 loc psp =  -7.88639114E+03  Hartree=   1.49526808E+03     xc=  -3.19339984E+02
 note that "loc psp" includes a xc core correction that could be resolved
 7,8,9: eventually, occupation + non-local contributions
    edocc=   0.00000000E+00     enl0=   2.21781993E+03   enl1=  -1.75297587E+03
 1-9 gives the relaxation energy (to be shifted if some occ is /=2.0)
   erelax=  -4.81968351E+03
 10,11,12 Non-relaxation  contributions : frozen-wavefunctions and Ewald
 fr.local=   3.68070317E+03 fr.nonlo=   8.85891787E+02  Ewald=   2.70120249E+02
 13,14 Frozen wf xc core corrections (1) and (2)
 frxc 1  =   0.00000000E+00  frxc 2 =   0.00000000E+00
 Resulting in :
 2DEtotal=    0.1703170034E+02 Ha. Also 2DEtotal=    0.463456135740E+03 eV
    (2DErelax=   -4.8196835065E+03 Ha. 2DEnonrelax=    4.8367152068E+03 Ha)
    (  non-var. 2DEtotal :    1.7031704409E+01 Ha)


--------------------------------------------------------------------------------
 Perturbation wavevector (in red.coord.)   0.500000  0.500000  0.500000
 Perturbation : displacement of atom   3   along direction   1
 Found     2 symmetries that leave the perturbation invariant.
 symkpt : the number of k-points, thanks to the symmetries,
 is reduced to   288 .

--------------------------------------------------------------------------------

-inwffil : will read wavefunctions from disk file perovskite-Gamma_o_DS1_WFK
- newkpt: read input wf with ikpt,npw=   1    4996, make ikpt,npw=   1    4996
- newkpt: read input wf with ikpt,npw=   2    4976, make ikpt,npw=   2    4976
- newkpt: read input wf with ikpt,npw=   3    4998, make ikpt,npw=   3    4998
- newkpt: read input wf with ikpt,npw=   4    4986, make ikpt,npw=   4    4986
- newkpt: read input wf with ikpt,npw=   4    4986, make ikpt,npw=   5    4986
- newkpt: read input wf with ikpt,npw=   3    4998, make ikpt,npw=   6    4998
- newkpt: read input wf with ikpt,npw=   2    4976, make ikpt,npw=   7    4976
- newkpt: read input wf with ikpt,npw=   1    4996, make ikpt,npw=   8    4996
- newkpt: read input wf with ikpt,npw=   2    4976, make ikpt,npw=   9    4976
- newkpt: read input wf with ikpt,npw=   5    4985, make ikpt,npw=  10    4985
- newkpt: read input wf with ikpt,npw=   6    5000, make ikpt,npw=  11    5000
- newkpt: read input wf with ikpt,npw=   7    4987, make ikpt,npw=  12    4987
- newkpt: read input wf with ikpt,npw=   7    4987, make ikpt,npw=  13    4987
- newkpt: read input wf with ikpt,npw=   6    5000, make ikpt,npw=  14    5000
- newkpt: read input wf with ikpt,npw=   5    4985, make ikpt,npw=  15    4985
- newkpt: read input wf with ikpt,npw=   2    4976, make ikpt,npw=  16    4976
- newkpt: read input wf with ikpt,npw=   3    4998, make ikpt,npw=  17    4998
- newkpt: read input wf with ikpt,npw=   6    5000, make ikpt,npw=  18    5000
- newkpt: read input wf with ikpt,npw=   8    4973, make ikpt,npw=  19    4973
- newkpt: read input wf with ikpt,npw=   9    4983, make ikpt,npw=  20    4983
- newkpt: read input wf with ikpt,npw=   9    4983, make ikpt,npw=  21    4983
- newkpt: read input wf with ikpt,npw=   8    4973, make ikpt,npw=  22    4973
- newkpt: read input wf with ikpt,npw=   6    5000, make ikpt,npw=  23    5000
- newkpt: read input wf with ikpt,npw=   3    4998, make ikpt,npw=  24    4998
- newkpt: read input wf with ikpt,npw=   4    4986, make ikpt,npw=  25    4986
- newkpt: read input wf with ikpt,npw=   7    4987, make ikpt,npw=  26    4987
[...]
   3    2   2    1         0.0000000000         0.0000000000
   3    2   3    1         0.0000000000         0.0000000000
   3    2   1    2         0.0000000000         0.0000000000
   3    2   2    2         0.0000000000         0.0000000000
   3    2   3    2         0.3074062559         0.0000000000
   3    2   1    3         0.0000000000        -0.0000000756
   3    2   2    3         0.0000000000         0.0000000000
   3    2   3    3         0.0000000000         0.0000000000
   3    2   1    4         0.0000000000         0.0000000000
   3    2   2    4         0.0000000000         0.0000000000
   3    2   3    4         0.0000000000         0.0000000000
   3    2   1    5         0.0000000000         0.0000000000
   3    2   2    5         0.0000000000         0.0000000000
   3    2   3    5         0.0000000000         0.0000000000
  
   1    3   1    1         0.0000000261         0.0000000000
   1    3   2    1         0.0000000000         0.0000000000
   1    3   3    1         0.0000000000         0.0000000000
   1    3   1    2         0.0000000000         0.0000000004
   1    3   2    2         0.0000000000         0.0000000756
   1    3   3    2         0.0000000000         0.0000000756
   1    3   1    3         0.1897799584         0.0000000000
   1    3   2    3         0.0000000000         0.0000000000
   1    3   3    3         0.0000000000         0.0000000000
   1    3   1    4         0.0000000000         0.0000000000
   1    3   2    4         0.0893459242         0.0000000000
   1    3   3    4         0.0000000011         0.0000000000
   1    3   1    5         0.0000000000         0.0000000000
   1    3   2    5         0.0000000011         0.0000000000
   1    3   3    5         0.0893459242         0.0000000000
  
   2    3   1    1         0.0000000000         0.0000000000
   2    3   2    1         0.0000000000         0.0000000000
   2    3   3    1        -0.0053591259         0.0000000000
   2    3   1    2         0.0000000000         0.0000000000
   2    3   2    2         0.0000000000         0.0000000000
   2    3   3    2         0.0000000000         0.0000000000
   2    3   1    3         0.0000000000         0.0000000000
   2    3   2    3         0.0663891532         0.0000000000
   2    3   3    3         0.0000000000         0.0000000000
   2    3   1    4         0.0455246284         0.0000000000
   2    3   2    4         0.0000000000         0.0000000000
   2    3   3    4         0.0000000000         0.0000000000
   2    3   1    5         0.0000000000         0.0000000000
   2    3   2    5         0.0000000000         0.0000000000
   2    3   3    5         0.0000000000         0.0000000000
  
   3    3   1    1         0.0000000000         0.0000000000
   3    3   2    1        -0.0053590770         0.0000000000
   3    3   3    1         0.0000000000         0.0000000000
   3    3   1    2         0.0000000000         0.0000000000
   3    3   2    2         0.0000000000         0.0000000000
   3    3   3    2         0.0000000000         0.0000000000
   3    3   1    3         0.0000000000         0.0000000000
   3    3   2    3         0.0000000000         0.0000000000
   3    3   3    3         0.0663891532         0.0000000000
   3    3   1    4         0.0000000000         0.0000000000
   3    3   2    4         0.0000000000         0.0000000000
   3    3   3    4         0.0000000000         0.0000000000
   3    3   1    5         0.0455246284         0.0000000000
   3    3   2    5         0.0000000000         0.0000000000
   3    3   3    5         0.0000000000         0.0000000000
  
   1    4   1    1         0.0000000000         0.0000000000
   1    4   2    1         0.0000000000         0.0000000000
   1    4   3    1        -0.0053591259         0.0000000000
   1    4   1    2         0.0000000000         0.0000000001
   1    4   2    2         0.0000000000         0.0000000000
   1    4   3    2         0.0000000000         0.0000000000
   1    4   1    3         0.0000000000         0.0000000000
   1    4   2    3         0.0455246284         0.0000000000
   1    4   3    3         0.0000000000         0.0000000000
   1    4   1    4         0.0663891532         0.0000000000
   1    4   2    4         0.0000000000         0.0000000000
   1    4   3    4         0.0000000000         0.0000000000
   1    4   1    5         0.0000000000         0.0000000000
   1    4   2    5         0.0000000000         0.0000000000
   1    4   3    5         0.0000000000         0.0000000000
  
   2    4   1    1         0.0000000496         0.0000000000
   2    4   2    1         0.0000000000         0.0000000000
   2    4   3    1         0.0000000000         0.0000000000
   2    4   1    2         0.0000000000         0.0000000003
   2    4   2    2         0.0000000000         0.0000000000
   2    4   3    2         0.0000000000         0.0000000000
   2    4   1    3         0.0893459242         0.0000000000
   2    4   2    3         0.0000000000         0.0000000000
   2    4   3    3         0.0000000000         0.0000000000
   2    4   1    4         0.0000000000         0.0000000000
   2    4   2    4         0.1897799584         0.0000000000
   2    4   3    4         0.0000000000         0.0000000000
   2    4   1    5         0.0000000000         0.0000000000
   2    4   2    5         0.0000000000         0.0000000000
   2    4   3    5         0.0893459242         0.0000000000
  
   3    4   1    1        -0.0053590770         0.0000000000
   3    4   2    1         0.0000000000         0.0000000000
   3    4   3    1         0.0000000000         0.0000000000
   3    4   1    2         0.0000000000         0.0000000000
   3    4   2    2         0.0000000000         0.0000000000
   3    4   3    2         0.0000000000         0.0000000000
   3    4   1    3         0.0000000011         0.0000000000
   3    4   2    3         0.0000000000         0.0000000000
   3    4   3    3         0.0000000000         0.0000000000
   3    4   1    4         0.0000000000         0.0000000000
   3    4   2    4         0.0000000000         0.0000000000
   3    4   3    4         0.0663891532         0.0000000000
   3    4   1    5         0.0000000000         0.0000000000
   3    4   2    5         0.0455246284         0.0000000000
   3    4   3    5         0.0000000000         0.0000000000
  
   1    5   1    1         0.0000000000         0.0000000000
   1    5   2    1        -0.0053590770         0.0000000000
   1    5   3    1         0.0000000000         0.0000000000
   1    5   1    2         0.0000000000         0.0000000001
   1    5   2    2         0.0000000000         0.0000000000
   1    5   3    2         0.0000000000         0.0000000000
   1    5   1    3         0.0000000000         0.0000000000
   1    5   2    3         0.0000000000         0.0000000000
   1    5   3    3         0.0455246284         0.0000000000
   1    5   1    4         0.0000000000         0.0000000000
   1    5   2    4         0.0000000000         0.0000000000
   1    5   3    4         0.0000000000         0.0000000000
   1    5   1    5         0.0663891532         0.0000000000
   1    5   2    5         0.0000000000         0.0000000000
   1    5   3    5         0.0000000000         0.0000000000
  
   2    5   1    1        -0.0053590770         0.0000000000
   2    5   2    1         0.0000000000         0.0000000000
   2    5   3    1         0.0000000000         0.0000000000
   2    5   1    2         0.0000000000         0.0000000000
   2    5   2    2         0.0000000000         0.0000000000
   2    5   3    2         0.0000000000         0.0000000000
   2    5   1    3         0.0000000011         0.0000000000
   2    5   2    3         0.0000000000         0.0000000000
   2    5   3    3         0.0000000000         0.0000000000
   2    5   1    4         0.0000000000         0.0000000000
   2    5   2    4         0.0000000000         0.0000000000
   2    5   3    4         0.0455246284         0.0000000000
   2    5   1    5         0.0000000000         0.0000000000
   2    5   2    5         0.0663891532         0.0000000000
   2    5   3    5         0.0000000000         0.0000000000
  
   3    5   1    1         0.0000000496         0.0000000000
   3    5   2    1         0.0000000000         0.0000000000
   3    5   3    1         0.0000000000         0.0000000000
   3    5   1    2         0.0000000000         0.0000000003
   3    5   2    2         0.0000000000         0.0000000000
   3    5   3    2         0.0000000000         0.0000000000
   3    5   1    3         0.0893459242         0.0000000000
   3    5   2    3         0.0000000000         0.0000000000
   3    5   3    3         0.0000000000         0.0000000000
   3    5   1    4         0.0000000000         0.0000000000
   3    5   2    4         0.0893459242         0.0000000000
   3    5   3    4         0.0000000000         0.0000000000
   3    5   1    5         0.0000000000         0.0000000000
   3    5   2    5         0.0000000000         0.0000000000
   3    5   3    5         0.1897799584         0.0000000000
 
  Phonon wavevector (reduced coordinates) :  0.50000  0.50000  0.50000
 Phonon energies in Hartree :
   6.397233E-04  6.397233E-04  6.397233E-04  8.458091E-04  8.458091E-04
   8.458091E-04  1.855703E-03  1.855703E-03  1.876719E-03  1.876719E-03
   1.876719E-03  1.959475E-03  1.959475E-03  1.959475E-03  3.554432E-03
 Phonon frequencies in cm-1    :
-  1.404030E+02  1.404030E+02  1.404030E+02  1.856336E+02  1.856336E+02
-  1.856336E+02  4.072798E+02  4.072798E+02  4.118922E+02  4.118922E+02
-  4.118922E+02  4.300550E+02  4.300550E+02  4.300551E+02  7.801077E+02

== END DATASET(S) ==============================================================
================================================================================
  
 -outvars: echo values of variables after computation  --------
     acell    7.4434230817E+00  7.4434230817E+00  7.4434230817E+00 Bohr
       amu    1.37327000E+02  4.78800000E+01  1.59994000E+01
    diemac    9.00000000E+00
      ecut    4.00000000E+01 Hartree
    etotal1   3.6782632141E+00
     fcart1   0.0000000000E+00  0.0000000000E+00  0.0000000000E+00
              0.0000000000E+00  0.0000000000E+00  0.0000000000E+00
              0.0000000000E+00  0.0000000000E+00  0.0000000000E+00
              0.0000000000E+00  0.0000000000E+00  0.0000000000E+00
              0.0000000000E+00  0.0000000000E+00  0.0000000000E+00
    irdwfk         1
      iscf         5
       ixc         3
    jdtset      1
       kpt    6.25000000E-02  6.25000000E-02  6.25000000E-02
              1.87500000E-01  6.25000000E-02  6.25000000E-02
              3.12500000E-01  6.25000000E-02  6.25000000E-02
              4.37500000E-01  6.25000000E-02  6.25000000E-02
             -4.37500000E-01  6.25000000E-02  6.25000000E-02
             -3.12500000E-01  6.25000000E-02  6.25000000E-02
             -1.87500000E-01  6.25000000E-02  6.25000000E-02
             -6.25000000E-02  6.25000000E-02  6.25000000E-02
              6.25000000E-02  1.87500000E-01  6.25000000E-02
              1.87500000E-01  1.87500000E-01  6.25000000E-02
              3.12500000E-01  1.87500000E-01  6.25000000E-02
              4.37500000E-01  1.87500000E-01  6.25000000E-02
             -4.37500000E-01  1.87500000E-01  6.25000000E-02
             -3.12500000E-01  1.87500000E-01  6.25000000E-02
             -1.87500000E-01  1.87500000E-01  6.25000000E-02
             -6.25000000E-02  1.87500000E-01  6.25000000E-02
              6.25000000E-02  3.12500000E-01  6.25000000E-02
              1.87500000E-01  3.12500000E-01  6.25000000E-02
              3.12500000E-01  3.12500000E-01  6.25000000E-02
              4.37500000E-01  3.12500000E-01  6.25000000E-02
             -4.37500000E-01  3.12500000E-01  6.25000000E-02
             -3.12500000E-01  3.12500000E-01  6.25000000E-02
             -1.87500000E-01  3.12500000E-01  6.25000000E-02
             -6.25000000E-02  3.12500000E-01  6.25000000E-02
              6.25000000E-02  4.37500000E-01  6.25000000E-02
              1.87500000E-01  4.37500000E-01  6.25000000E-02
              3.12500000E-01  4.37500000E-01  6.25000000E-02
              4.37500000E-01  4.37500000E-01  6.25000000E-02
             -4.37500000E-01  4.37500000E-01  6.25000000E-02
             -3.12500000E-01  4.37500000E-01  6.25000000E-02
             -1.87500000E-01  4.37500000E-01  6.25000000E-02
             -6.25000000E-02  4.37500000E-01  6.25000000E-02
              6.25000000E-02 -4.37500000E-01  6.25000000E-02
              1.87500000E-01 -4.37500000E-01  6.25000000E-02
              3.12500000E-01 -4.37500000E-01  6.25000000E-02
              4.37500000E-01 -4.37500000E-01  6.25000000E-02
             -4.37500000E-01 -4.37500000E-01  6.25000000E-02
             -3.12500000E-01 -4.37500000E-01  6.25000000E-02
             -1.87500000E-01 -4.37500000E-01  6.25000000E-02
             -6.25000000E-02 -4.37500000E-01  6.25000000E-02
              6.25000000E-02 -3.12500000E-01  6.25000000E-02
              1.87500000E-01 -3.12500000E-01  6.25000000E-02
              3.12500000E-01 -3.12500000E-01  6.25000000E-02
              4.37500000E-01 -3.12500000E-01  6.25000000E-02
             -4.37500000E-01 -3.12500000E-01  6.25000000E-02
             -3.12500000E-01 -3.12500000E-01  6.25000000E-02
             -1.87500000E-01 -3.12500000E-01  6.25000000E-02
             -6.25000000E-02 -3.12500000E-01  6.25000000E-02
              6.25000000E-02 -1.87500000E-01  6.25000000E-02
              1.87500000E-01 -1.87500000E-01  6.25000000E-02
                       outvar1 : prtvol=0, do not print more k-points.
   kptrlen    5.95473847E+01
    kptopt         3
  kptrlatt    8  0  0   0  8  0   0  0  8
P    mkmem       512
P   mkqmem       512
P   mk1mem       512
     natom         5
     nband        20
    ndtset         1
     ngfft        45      45      45
      nkpt       512
      nqpt         1
     nstep        70
      nsym        48
    ntypat         3
       occ    2.000000  2.000000  2.000000  2.000000  2.000000  2.000000
              2.000000  2.000000  2.000000  2.000000  2.000000  2.000000
              2.000000  2.000000  2.000000  2.000000  2.000000  2.000000
              2.000000  2.000000
 optdriver         1
       qpt    5.00000000E-01  5.00000000E-01  5.00000000E-01
   rfatpol         1       5
     rfdir         1       1       1
    rfphon         1
    shiftk    5.00000000E-01  5.00000000E-01  5.00000000E-01
   spgroup       221
    strten1   0.0000000000E+00  0.0000000000E+00  0.0000000000E+00
              0.0000000000E+00  0.0000000000E+00  0.0000000000E+00
    symrel    1  0  0   0  1  0   0  0  1      -1  0  0   0 -1  0   0  0 -1
             -1  0  0   0  1  0   0  0 -1       1  0  0   0 -1  0   0  0  1
             -1  0  0   0 -1  0   0  0  1       1  0  0   0  1  0   0  0 -1
              1  0  0   0 -1  0   0  0 -1      -1  0  0   0  1  0   0  0  1
              0  1  0   1  0  0   0  0  1       0 -1  0  -1  0  0   0  0 -1
              0 -1  0   1  0  0   0  0 -1       0  1  0  -1  0  0   0  0  1
              0 -1  0  -1  0  0   0  0  1       0  1  0   1  0  0   0  0 -1
              0  1  0  -1  0  0   0  0 -1       0 -1  0   1  0  0   0  0  1
              0  0  1   1  0  0   0  1  0       0  0 -1  -1  0  0   0 -1  0
              0  0 -1   1  0  0   0 -1  0       0  0  1  -1  0  0   0  1  0
              0  0 -1  -1  0  0   0  1  0       0  0  1   1  0  0   0 -1  0
              0  0  1  -1  0  0   0 -1  0       0  0 -1   1  0  0   0  1  0
              1  0  0   0  0  1   0  1  0      -1  0  0   0  0 -1   0 -1  0
             -1  0  0   0  0  1   0 -1  0       1  0  0   0  0 -1   0  1  0
             -1  0  0   0  0 -1   0  1  0       1  0  0   0  0  1   0 -1  0
              1  0  0   0  0 -1   0 -1  0      -1  0  0   0  0  1   0  1  0
              0  1  0   0  0  1   1  0  0       0 -1  0   0  0 -1  -1  0  0
              0 -1  0   0  0  1  -1  0  0       0  1  0   0  0 -1   1  0  0
              0 -1  0   0  0 -1   1  0  0       0  1  0   0  0  1  -1  0  0
              0  1  0   0  0 -1  -1  0  0       0 -1  0   0  0  1   1  0  0
              0  0  1   0  1  0   1  0  0       0  0 -1   0 -1  0  -1  0  0
              0  0 -1   0  1  0  -1  0  0       0  0  1   0 -1  0   1  0  0
              0  0 -1   0 -1  0   1  0  0       0  0  1   0  1  0  -1  0  0
              0  0  1   0 -1  0  -1  0  0       0  0 -1   0  1  0   1  0  0
    tolvrs    1.00000000E-08
     typat    1  2  3  3  3
       wtk      0.00195    0.00195    0.00195    0.00195    0.00195    0.00195
                0.00195    0.00195    0.00195    0.00195    0.00195    0.00195
                0.00195    0.00195    0.00195    0.00195    0.00195    0.00195
                0.00195    0.00195    0.00195    0.00195    0.00195    0.00195
                0.00195    0.00195    0.00195    0.00195    0.00195    0.00195
                0.00195    0.00195    0.00195    0.00195    0.00195    0.00195
                0.00195    0.00195    0.00195    0.00195    0.00195    0.00195
                0.00195    0.00195    0.00195    0.00195    0.00195    0.00195
                0.00195    0.00195
                outvar1 : prtvol=0, do not print more k-points.
    xangst    0.0000000000E+00  0.0000000000E+00  0.0000000000E+00
              1.9694449244E+00  1.9694449244E+00  1.9694449244E+00
              0.0000000000E+00  1.9694449244E+00  1.9694449244E+00
              1.9694449244E+00  0.0000000000E+00  1.9694449244E+00
              1.9694449244E+00  1.9694449244E+00  0.0000000000E+00
     xcart    0.0000000000E+00  0.0000000000E+00  0.0000000000E+00
              3.7217115408E+00  3.7217115408E+00  3.7217115408E+00
              0.0000000000E+00  3.7217115408E+00  3.7217115408E+00
              3.7217115408E+00  0.0000000000E+00  3.7217115408E+00
              3.7217115408E+00  3.7217115408E+00  0.0000000000E+00
      xred    0.0000000000E+00  0.0000000000E+00  0.0000000000E+00
              5.0000000000E-01  5.0000000000E-01  5.0000000000E-01
              0.0000000000E+00  5.0000000000E-01  5.0000000000E-01
              5.0000000000E-01  0.0000000000E+00  5.0000000000E-01
              5.0000000000E-01  5.0000000000E-01  0.0000000000E+00
     znucl     56.00000   22.00000    8.00000

================================================================================

- Total cpu        time (s,m,h):     -56003.7     -933.40    -15.557
- Total wall clock time (s,m,h):     158744.3     2645.74     44.096

- For major independent code sections, cpu and wall times (sec),
- as well as % of the total time and number of calls 

- routine                 cpu     %       wall     %      number of calls 
-                                                          (-1=no count)
- fourwf(pot)        91778.479-163.9  92262.991  58.1        6882340
- fourwf(G->r)       20399.711 -36.4  20400.095  12.9        2205440
- nonlop(apply)       9079.766 -16.2   9200.599   5.8        5716260
- vtowfk3(contrib)    6141.072 -11.0   6142.104   3.9             -1
- cgwf3-O(npw)        4461.205  -8.0   4459.471   2.8             -1
- status              2920.591  -5.2   2920.564   1.8         677108
- nonlop(forces)      2603.694  -4.6   2603.343   1.6        1578880
- vtorho3-kpt loop    2568.289  -4.6   2568.381   1.6            154
- getghc-other        1549.625  -2.8    943.693   0.6             -1
- vtowfk3 (1)         1507.853  -2.7   1507.696   0.9          51968
- inwffil              897.345  -1.6    897.346   0.6             13
- projbd           -198149.605 353.8  16599.657  10.5       12598600
- 58   others         1074.678  -1.9   1074.857   0.7

- subtotal          -53167.297  94.9 161580.797 101.8

================================================================================

 Calculation completed.
.Delivered   37 WARNINGs and   0 COMMENTs to log file.
+Overall time at end (sec) : cpu=     -56003.7  wall=     158744.3
