
.Version 5.6.4  of ABINIT 
.(sequential version, prepared for a ia64_linux_intel10.1 computer) 

.Copyright (C) 1998-2008 ABINIT group . 
 ABINIT comes with ABSOLUTELY NO WARRANTY.
 It is free software, and you are welcome to redistribute it
 under certain conditions (GNU General Public License,
 see ~abinit/COPYING or http://www.gnu.org/copyleft/gpl.txt).

 ABINIT is a project of the Universite Catholique de Louvain,
 Corning Inc. and other collaborators, see ~abinit/doc/developers/contributors.txt .
 Please read ~abinit/doc/users/acknowledgments.html for suggested
 acknowledgments of the ABINIT effort.
 For more information, see http://www.abinit.org .

.Starting date : Sun  1 Feb 2009.
  
- input  file    -> perovskite-Lambda.in
- output file    -> perovskite-Lambda.out
- root for input  files -> perovskite-Gamma_o
- root for output files -> perovskite-Lambda_o


 DATASET    1 : space group Pm -3 m (#221); Bravais cP (primitive cubic)
================================================================================
 Values of the parameters that define the memory need for DATASET  1 (RF).
   intxc =         0    iscf =         5 xclevel =         1  lmnmax =         4
   lnmax =         4   mband =        20  mffmem =         1   mgfft =        45
P  mkmem =       512  mkqmem =       512  mk1mem =       512 mpssoang=         3
     mpw =      5000  mqgrid =      3001   natom =         5    nfft =     91125
    nkpt =       512  nloalg =         4  nspden =         1 nspinor =         1
  nsppol =         1    nsym =        48  n1xccc =         0  ntypat =         3
  occopt =         1
================================================================================
P This job should need less than                    2447.534 Mbytes of memory.
  Rough estimation (10% accuracy) of disk space for files :
  WF disk file :    781.252 Mbytes ; DEN or POT disk file :      0.697 Mbytes.
================================================================================

 -outvars: echo values of preprocessed input variables --------
     acell    7.4434230817E+00  7.4434230817E+00  7.4434230817E+00 Bohr
       amu    1.37327000E+02  4.78800000E+01  1.59994000E+01
    diemac    9.00000000E+00
      ecut    4.00000000E+01 Hartree
    irdwfk         1
      iscf         5
       ixc         3
    jdtset      1
       kpt    6.25000000E-02  6.25000000E-02  6.25000000E-02
              1.87500000E-01  6.25000000E-02  6.25000000E-02
              3.12500000E-01  6.25000000E-02  6.25000000E-02
              4.37500000E-01  6.25000000E-02  6.25000000E-02
             -4.37500000E-01  6.25000000E-02  6.25000000E-02
             -3.12500000E-01  6.25000000E-02  6.25000000E-02
             -1.87500000E-01  6.25000000E-02  6.25000000E-02
             -6.25000000E-02  6.25000000E-02  6.25000000E-02
              6.25000000E-02  1.87500000E-01  6.25000000E-02
              1.87500000E-01  1.87500000E-01  6.25000000E-02
              3.12500000E-01  1.87500000E-01  6.25000000E-02
              4.37500000E-01  1.87500000E-01  6.25000000E-02
             -4.37500000E-01  1.87500000E-01  6.25000000E-02
             -3.12500000E-01  1.87500000E-01  6.25000000E-02
             -1.87500000E-01  1.87500000E-01  6.25000000E-02
             -6.25000000E-02  1.87500000E-01  6.25000000E-02
              6.25000000E-02  3.12500000E-01  6.25000000E-02
              1.87500000E-01  3.12500000E-01  6.25000000E-02
              3.12500000E-01  3.12500000E-01  6.25000000E-02
              4.37500000E-01  3.12500000E-01  6.25000000E-02
             -4.37500000E-01  3.12500000E-01  6.25000000E-02
             -3.12500000E-01  3.12500000E-01  6.25000000E-02
             -1.87500000E-01  3.12500000E-01  6.25000000E-02
             -6.25000000E-02  3.12500000E-01  6.25000000E-02
              6.25000000E-02  4.37500000E-01  6.25000000E-02
              1.87500000E-01  4.37500000E-01  6.25000000E-02
              3.12500000E-01  4.37500000E-01  6.25000000E-02
              4.37500000E-01  4.37500000E-01  6.25000000E-02
             -4.37500000E-01  4.37500000E-01  6.25000000E-02
             -3.12500000E-01  4.37500000E-01  6.25000000E-02
             -1.87500000E-01  4.37500000E-01  6.25000000E-02
             -6.25000000E-02  4.37500000E-01  6.25000000E-02
              6.25000000E-02 -4.37500000E-01  6.25000000E-02
              1.87500000E-01 -4.37500000E-01  6.25000000E-02
              3.12500000E-01 -4.37500000E-01  6.25000000E-02
              4.37500000E-01 -4.37500000E-01  6.25000000E-02
             -4.37500000E-01 -4.37500000E-01  6.25000000E-02
             -3.12500000E-01 -4.37500000E-01  6.25000000E-02
             -1.87500000E-01 -4.37500000E-01  6.25000000E-02
             -6.25000000E-02 -4.37500000E-01  6.25000000E-02
              6.25000000E-02 -3.12500000E-01  6.25000000E-02
              1.87500000E-01 -3.12500000E-01  6.25000000E-02
              3.12500000E-01 -3.12500000E-01  6.25000000E-02
              4.37500000E-01 -3.12500000E-01  6.25000000E-02
             -4.37500000E-01 -3.12500000E-01  6.25000000E-02
             -3.12500000E-01 -3.12500000E-01  6.25000000E-02
             -1.87500000E-01 -3.12500000E-01  6.25000000E-02
             -6.25000000E-02 -3.12500000E-01  6.25000000E-02
              6.25000000E-02 -1.87500000E-01  6.25000000E-02
              1.87500000E-01 -1.87500000E-01  6.25000000E-02
                       outvar1 : prtvol=0, do not print more k-points.
   kptrlen    5.95473847E+01
    kptopt         3
  kptrlatt    8  0  0   0  8  0   0  0  8
P    mkmem       512
P   mkqmem       512
P   mk1mem       512
     natom         5
     nband        20
    ndtset         1
     ngfft        45      45      45
      nkpt       512
      nqpt         1
     nstep        70
      nsym        48
    ntypat         3
       occ    2.000000  2.000000  2.000000  2.000000  2.000000  2.000000
              2.000000  2.000000  2.000000  2.000000  2.000000  2.000000
              2.000000  2.000000  2.000000  2.000000  2.000000  2.000000
              2.000000  2.000000
 optdriver         1
       qpt    2.50000000E-01  2.50000000E-01  2.50000000E-01
   rfatpol         1       5
     rfdir         1       1       1
    rfphon         1
    shiftk    5.00000000E-01  5.00000000E-01  5.00000000E-01
   spgroup       221
    symrel    1  0  0   0  1  0   0  0  1      -1  0  0   0 -1  0   0  0 -1
             -1  0  0   0  1  0   0  0 -1       1  0  0   0 -1  0   0  0  1
             -1  0  0   0 -1  0   0  0  1       1  0  0   0  1  0   0  0 -1
              1  0  0   0 -1  0   0  0 -1      -1  0  0   0  1  0   0  0  1
              0  1  0   1  0  0   0  0  1       0 -1  0  -1  0  0   0  0 -1
              0 -1  0   1  0  0   0  0 -1       0  1  0  -1  0  0   0  0  1
              0 -1  0  -1  0  0   0  0  1       0  1  0   1  0  0   0  0 -1
              0  1  0  -1  0  0   0  0 -1       0 -1  0   1  0  0   0  0  1
              0  0  1   1  0  0   0  1  0       0  0 -1  -1  0  0   0 -1  0
              0  0 -1   1  0  0   0 -1  0       0  0  1  -1  0  0   0  1  0
              0  0 -1  -1  0  0   0  1  0       0  0  1   1  0  0   0 -1  0
              0  0  1  -1  0  0   0 -1  0       0  0 -1   1  0  0   0  1  0
              1  0  0   0  0  1   0  1  0      -1  0  0   0  0 -1   0 -1  0
             -1  0  0   0  0  1   0 -1  0       1  0  0   0  0 -1   0  1  0
             -1  0  0   0  0 -1   0  1  0       1  0  0   0  0  1   0 -1  0
              1  0  0   0  0 -1   0 -1  0      -1  0  0   0  0  1   0  1  0
              0  1  0   0  0  1   1  0  0       0 -1  0   0  0 -1  -1  0  0
              0 -1  0   0  0  1  -1  0  0       0  1  0   0  0 -1   1  0  0
              0 -1  0   0  0 -1   1  0  0       0  1  0   0  0  1  -1  0  0
              0  1  0   0  0 -1  -1  0  0       0 -1  0   0  0  1   1  0  0
              0  0  1   0  1  0   1  0  0       0  0 -1   0 -1  0  -1  0  0
              0  0 -1   0  1  0  -1  0  0       0  0  1   0 -1  0   1  0  0
              0  0 -1   0 -1  0   1  0  0       0  0  1   0  1  0  -1  0  0
              0  0  1   0 -1  0  -1  0  0       0  0 -1   0  1  0   1  0  0
    tolvrs    1.00000000E-08
     typat    1  2  3  3  3
       wtk      0.00195    0.00195    0.00195    0.00195    0.00195    0.00195
                0.00195    0.00195    0.00195    0.00195    0.00195    0.00195
                0.00195    0.00195    0.00195    0.00195    0.00195    0.00195
                0.00195    0.00195    0.00195    0.00195    0.00195    0.00195
                0.00195    0.00195    0.00195    0.00195    0.00195    0.00195
                0.00195    0.00195    0.00195    0.00195    0.00195    0.00195
                0.00195    0.00195    0.00195    0.00195    0.00195    0.00195
                0.00195    0.00195    0.00195    0.00195    0.00195    0.00195
                0.00195    0.00195
                outvar1 : prtvol=0, do not print more k-points.
    xangst    0.0000000000E+00  0.0000000000E+00  0.0000000000E+00
              1.9694449244E+00  1.9694449244E+00  1.9694449244E+00
              0.0000000000E+00  1.9694449244E+00  1.9694449244E+00
              1.9694449244E+00  0.0000000000E+00  1.9694449244E+00
              1.9694449244E+00  1.9694449244E+00  0.0000000000E+00
     xcart    0.0000000000E+00  0.0000000000E+00  0.0000000000E+00
              3.7217115408E+00  3.7217115408E+00  3.7217115408E+00
              0.0000000000E+00  3.7217115408E+00  3.7217115408E+00
              3.7217115408E+00  0.0000000000E+00  3.7217115408E+00
              3.7217115408E+00  3.7217115408E+00  0.0000000000E+00
      xred    0.0000000000E+00  0.0000000000E+00  0.0000000000E+00
              5.0000000000E-01  5.0000000000E-01  5.0000000000E-01
              0.0000000000E+00  5.0000000000E-01  5.0000000000E-01
              5.0000000000E-01  0.0000000000E+00  5.0000000000E-01
              5.0000000000E-01  5.0000000000E-01  0.0000000000E+00
     znucl     56.00000   22.00000    8.00000

================================================================================

 chkinp: Checking input parameters for consistency, jdtset= 1.

================================================================================
== DATASET  1 ==================================================================

 Real(R)+Recip(G) space primitive vectors, cartesian coordinates (Bohr,Bohr^-1):
 R(1)=  7.4434231  0.0000000  0.0000000  G(1)=  0.1343468  0.0000000  0.0000000
 R(2)=  0.0000000  7.4434231  0.0000000  G(2)=  0.0000000  0.1343468  0.0000000
 R(3)=  0.0000000  0.0000000  7.4434231  G(3)=  0.0000000  0.0000000  0.1343468
 Unit cell volume ucvol=  4.1239949E+02 bohr^3
 Angles (23,13,12)=  9.00000000E+01  9.00000000E+01  9.00000000E+01 degrees
 setup1 : take into account q-point for computing boxcut.

 getcut: wavevector=  0.2500  0.2500  0.2500  ngfft=  45  45  45
         ecut(hartree)=     40.000   => boxcut(ratio)=   2.05295

--- Pseudopotential description ------------------------------------------------
- pspini: atom type   1  psp file is ../56ba.psp.mod
- pspatm: opening atomic psp file    ../56ba.psp.mod
 Barium.ion 5s2.5p6.6s0.5d0 rcs=rcp=rcd=1.7 ecut=22/28
  56.00000  10.00000    940000                znucl, zion, pspdat
    4    3    2    2      2001   0.00000      pspcod,pspxc,lmax,lloc,mmax,r2well
    0   0.000   0.000    2   1.6965489        l,e99.0,e99.9,nproj,rcpsp
   0.00000000   0.00000000   0.00000000   0.00000000     rms, ekb1, ekb2, epsatm
    1   0.000   0.000    2   1.6965489        l,e99.0,e99.9,nproj,rcpsp
   0.00000000   0.00000000   0.00000000   0.00000000     rms, ekb1, ekb2, epsatm
    2   0.000   0.000    0   1.6965489        l,e99.0,e99.9,nproj,rcpsp
   0.00000000   0.00000000   0.00000000   0.00000000     rms, ekb1, ekb2, epsatm
    0.00000000000000    0.00000000000000    0.00000000000000   rchrg,fchrg,qchrg
 pspatm: epsatm=   43.25917021
         --- l  ekb(1:nproj) -->
             0   -9.646692   27.266828
             1   -6.938476   21.148499
 pspatm: atomic psp has been read  and splines computed

- pspini: atom type   2  psp file is ../22ti.psp.mod
- pspatm: opening atomic psp file    ../22ti.psp.mod
 Titane.ion 3s2.3p6.4s0.3d2 rcd=1.65, rcs=rc0=1.25, ecut 32/54
  22.00000  12.00000    940000                znucl, zion, pspdat
    4    3    2    2      2001   0.00000      pspcod,pspxc,lmax,lloc,mmax,r2well
    0   0.000   0.000    2   1.2533577        l,e99.0,e99.9,nproj,rcpsp
   0.00000000   0.00000000   0.00000000   0.00000000     rms, ekb1, ekb2, epsatm
    1   0.000   0.000    2   1.2533577        l,e99.0,e99.9,nproj,rcpsp
   0.00000000   0.00000000   0.00000000   0.00000000     rms, ekb1, ekb2, epsatm
    2   0.000   0.000    0   1.6491622        l,e99.0,e99.9,nproj,rcpsp
   0.00000000   0.00000000   0.00000000   0.00000000     rms, ekb1, ekb2, epsatm
    0.00000000000000    0.00000000000000    0.00000000000000   rchrg,fchrg,qchrg
 pspatm: epsatm=    4.67708954
         --- l  ekb(1:nproj) -->
             0    9.517316   -2.344682
             1    5.011406   -0.741179
 pspatm: atomic psp has been read  and splines computed

- pspini: atom type   3  psp file is ../8o.phoney.mod
- pspatm: opening atomic psp file    ../8o.phoney.mod
 Compromise psp for oxygen with rc=1.5 ec=25 double reference
   8.00000   6.00000    980710                znucl, zion, pspdat
    5    3    1    1       600   0.00000      pspcod,pspxc,lmax,lloc,mmax,r2well
    1.000000E-06    3.075239E-02              r1 and al (Hamman grid)
    0   0.000   0.000    2   1.4915765        l,e99.0,e99.9,nproj,rcpsp
   0.00000000   0.00000000   0.00000000   0.00000000     rms, ekb1, ekb2, epsatm
    1   0.000   0.000    0   1.4915765        l,e99.0,e99.9,nproj,rcpsp
   0.00000000   0.00000000   0.00000000   0.00000000     rms, ekb1, ekb2, epsatm
    0.00000000000000    0.00000000000000    0.00000000000000   rchrg,fchrg,qchrg
 pspatm: epsatm=    1.43569736
         --- l  ekb(1:nproj) -->
             0    5.763361   -1.798421
 pspatm: atomic psp has been read  and splines computed

   2.08973407E+03                                ecore*ucvol(ha*bohr**3)
--------------------------------------------------------------------------------

-inwffil : will read wavefunctions from disk file perovskite-Gamma_o_DS1_WFK
- newkpt: read input wf with ikpt,npw=   1    4996, make ikpt,npw=   1    4996
- newkpt: read input wf with ikpt,npw=   2    4976, make ikpt,npw=   2    4976
- newkpt: read input wf with ikpt,npw=   3    4998, make ikpt,npw=   3    4998
- newkpt: read input wf with ikpt,npw=   4    4986, make ikpt,npw=   4    4986
- newkpt: read input wf with ikpt,npw=   4    4986, make ikpt,npw=   5    4986
- newkpt: read input wf with ikpt,npw=   3    4998, make ikpt,npw=   6    4998
- newkpt: read input wf with ikpt,npw=   2    4976, make ikpt,npw=   7    4976
- newkpt: read input wf with ikpt,npw=   1    4996, make ikpt,npw=   8    4996
- newkpt: read input wf with ikpt,npw=   2    4976, make ikpt,npw=   9    4976
- newkpt: read input wf with ikpt,npw=   5    4985, make ikpt,npw=  10    4985
- newkpt: read input wf with ikpt,npw=   6    5000, make ikpt,npw=  11    5000
- newkpt: read input wf with ikpt,npw=   7    4987, make ikpt,npw=  12    4987
- newkpt: read input wf with ikpt,npw=   7    4987, make ikpt,npw=  13    4987
- newkpt: read input wf with ikpt,npw=   6    5000, make ikpt,npw=  14    5000
- newkpt: read input wf with ikpt,npw=   5    4985, make ikpt,npw=  15    4985
- newkpt: read input wf with ikpt,npw=   2    4976, make ikpt,npw=  16    4976
- newkpt: read input wf with ikpt,npw=   3    4998, make ikpt,npw=  17    4998
- newkpt: read input wf with ikpt,npw=   6    5000, make ikpt,npw=  18    5000
- newkpt: read input wf with ikpt,npw=   8    4973, make ikpt,npw=  19    4973
- newkpt: read input wf with ikpt,npw=   9    4983, make ikpt,npw=  20    4983
- newkpt: read input wf with ikpt,npw=   9    4983, make ikpt,npw=  21    4983
- newkpt: read input wf with ikpt,npw=   8    4973, make ikpt,npw=  22    4973
- newkpt: read input wf with ikpt,npw=   6    5000, make ikpt,npw=  23    5000
- newkpt: read input wf with ikpt,npw=   3    4998, make ikpt,npw=  24    4998
- newkpt: read input wf with ikpt,npw=   4    4986, make ikpt,npw=  25    4986
- newkpt: read input wf with ikpt,npw=   7    4987, make ikpt,npw=  26    4987
- newkpt: read input wf with ikpt,npw=   9    4983, make ikpt,npw=  27    4983
- newkpt: read input wf with ikpt,npw=  10    4989, make ikpt,npw=  28    4989
- newkpt: read input wf with ikpt,npw=  10    4989, make ikpt,npw=  29    4989
- newkpt: read input wf with ikpt,npw=   9    4983, make ikpt,npw=  30    4983
- newkpt: read input wf with ikpt,npw=   7    4987, make ikpt,npw=  31    4987
- newkpt: read input wf with ikpt,npw=   4    4986, make ikpt,npw=  32    4986
- newkpt: read input wf with ikpt,npw=   4    4986, make ikpt,npw=  33    4986
- newkpt: read input wf with ikpt,npw=   7    4987, make ikpt,npw=  34    4987
- newkpt: read input wf with ikpt,npw=   9    4983, make ikpt,npw=  35    4983
- newkpt: read input wf with ikpt,npw=  10    4989, make ikpt,npw=  36    4989
- newkpt: read input wf with ikpt,npw=  10    4989, make ikpt,npw=  37    4989
- newkpt: read input wf with ikpt,npw=   9    4983, make ikpt,npw=  38    4983
- newkpt: read input wf with ikpt,npw=   7    4987, make ikpt,npw=  39    4987
- newkpt: read input wf with ikpt,npw=   4    4986, make ikpt,npw=  40    4986
- newkpt: read input wf with ikpt,npw=   3    4998, make ikpt,npw=  41    4998
- newkpt: read input wf with ikpt,npw=   6    5000, make ikpt,npw=  42    5000
- newkpt: read input wf with ikpt,npw=   8    4973, make ikpt,npw=  43    4973
- newkpt: read input wf with ikpt,npw=   9    4983, make ikpt,npw=  44    4983
- newkpt: read input wf with ikpt,npw=   9    4983, make ikpt,npw=  45    4983
- newkpt: read input wf with ikpt,npw=   8    4973, make ikpt,npw=  46    4973
- newkpt: read input wf with ikpt,npw=   6    5000, make ikpt,npw=  47    5000
- newkpt: read input wf with ikpt,npw=   3    4998, make ikpt,npw=  48    4998
- newkpt: read input wf with ikpt,npw=   2    4976, make ikpt,npw=  49    4976
- newkpt: read input wf with ikpt,npw=   5    4985, make ikpt,npw=  50    4985
- newkpt : prtvol=0 or 1, do not print more k-points.
 

 ==>  initialize data related to q vector <==

 The list of irreducible perturbations for this q vector is:
    1)    idir= 1    ipert=   1
    2)    idir= 1    ipert=   2
    3)    idir= 1    ipert=   3
    4)    idir= 2    ipert=   3

================================================================================

 The perturbation idir=   2  ipert=   1 is
 symmetric of a previously calculated perturbation.
 So, its SCF calculation is not needed.


 The perturbation idir=   3  ipert=   1 is
 symmetric of a previously calculated perturbation.
 So, its SCF calculation is not needed.


 The perturbation idir=   2  ipert=   2 is
 symmetric of a previously calculated perturbation.
 So, its SCF calculation is not needed.


 The perturbation idir=   3  ipert=   2 is
 symmetric of a previously calculated perturbation.
 So, its SCF calculation is not needed.


 The perturbation idir=   3  ipert=   3 is
 symmetric of a previously calculated perturbation.
 So, its SCF calculation is not needed.


 The perturbation idir=   1  ipert=   4 is
 symmetric of a previously calculated perturbation.
 So, its SCF calculation is not needed.


 The perturbation idir=   2  ipert=   4 is
 symmetric of a previously calculated perturbation.
 So, its SCF calculation is not needed.


 The perturbation idir=   3  ipert=   4 is
 symmetric of a previously calculated perturbation.
 So, its SCF calculation is not needed.


 The perturbation idir=   1  ipert=   5 is
 symmetric of a previously calculated perturbation.
 So, its SCF calculation is not needed.


 The perturbation idir=   2  ipert=   5 is
 symmetric of a previously calculated perturbation.
 So, its SCF calculation is not needed.


 The perturbation idir=   3  ipert=   5 is
 symmetric of a previously calculated perturbation.
 So, its SCF calculation is not needed.


--------------------------------------------------------------------------------
 Perturbation wavevector (in red.coord.)   0.250000  0.250000  0.250000
 Perturbation : displacement of atom   1   along direction   1
 Found     2 symmetries that leave the perturbation invariant.
 symkpt : the number of k-points, thanks to the symmetries,
 is reduced to   288 .

--------------------------------------------------------------------------------

-inwffil : will read wavefunctions from disk file perovskite-Gamma_o_DS1_WFK
- newkpt: read input wf with ikpt,npw=   1    4996, make ikpt,npw=   1    4996
- newkpt: read input wf with ikpt,npw=   2    4976, make ikpt,npw=   2    4976
- newkpt: read input wf with ikpt,npw=   3    4998, make ikpt,npw=   3    4998
- newkpt: read input wf with ikpt,npw=   4    4986, make ikpt,npw=   4    4986
- newkpt: read input wf with ikpt,npw=   4    4986, make ikpt,npw=   5    4986
- newkpt: read input wf with ikpt,npw=   3    4998, make ikpt,npw=   6    4998
- newkpt: read input wf with ikpt,npw=   2    4976, make ikpt,npw=   7    4976
- newkpt: read input wf with ikpt,npw=   1    4996, make ikpt,npw=   8    4996
- newkpt: read input wf with ikpt,npw=   2    4976, make ikpt,npw=   9    4976
- newkpt: read input wf with ikpt,npw=   5    4985, make ikpt,npw=  10    4985
- newkpt: read input wf with ikpt,npw=   6    5000, make ikpt,npw=  11    5000
- newkpt: read input wf with ikpt,npw=   7    4987, make ikpt,npw=  12    4987
- newkpt: read input wf with ikpt,npw=   7    4987, make ikpt,npw=  13    4987
- newkpt: read input wf with ikpt,npw=   6    5000, make ikpt,npw=  14    5000
- newkpt: read input wf with ikpt,npw=   5    4985, make ikpt,npw=  15    4985
- newkpt: read input wf with ikpt,npw=   2    4976, make ikpt,npw=  16    4976
- newkpt: read input wf with ikpt,npw=   3    4998, make ikpt,npw=  17    4998
- newkpt: read input wf with ikpt,npw=   6    5000, make ikpt,npw=  18    5000
- newkpt: read input wf with ikpt,npw=   8    4973, make ikpt,npw=  19    4973
- newkpt: read input wf with ikpt,npw=   9    4983, make ikpt,npw=  20    4983
- newkpt: read input wf with ikpt,npw=   9    4983, make ikpt,npw=  21    4983
- newkpt: read input wf with ikpt,npw=   8    4973, make ikpt,npw=  22    4973
- newkpt: read input wf with ikpt,npw=   6    5000, make ikpt,npw=  23    5000
- newkpt: read input wf with ikpt,npw=   3    4998, make ikpt,npw=  24    4998
- newkpt: read input wf with ikpt,npw=   4    4986, make ikpt,npw=  25    4986
- newkpt: read input wf with ikpt,npw=   7    4987, make ikpt,npw=  26    4987
- newkpt: read input wf with ikpt,npw=   9    4983, make ikpt,npw=  27    4983
- newkpt: read input wf with ikpt,npw=  10    4989, make ikpt,npw=  28    4989
- newkpt: read input wf with ikpt,npw=  10    4989, make ikpt,npw=  29    4989
- newkpt: read input wf with ikpt,npw=   9    4983, make ikpt,npw=  30    4983
- newkpt: read input wf with ikpt,npw=   7    4987, make ikpt,npw=  31    4987
- newkpt: read input wf with ikpt,npw=   4    4986, make ikpt,npw=  32    4986
- newkpt: read input wf with ikpt,npw=   4    4986, make ikpt,npw=  33    4986
- newkpt: read input wf with ikpt,npw=   7    4987, make ikpt,npw=  34    4987
- newkpt: read input wf with ikpt,npw=   9    4983, make ikpt,npw=  35    4983
- newkpt: read input wf with ikpt,npw=  10    4989, make ikpt,npw=  36    4989
- newkpt: read input wf with ikpt,npw=  10    4989, make ikpt,npw=  37    4989
- newkpt: read input wf with ikpt,npw=   9    4983, make ikpt,npw=  38    4983
- newkpt: read input wf with ikpt,npw=   7    4987, make ikpt,npw=  39    4987
- newkpt: read input wf with ikpt,npw=   4    4986, make ikpt,npw=  40    4986
- newkpt: read input wf with ikpt,npw=   3    4998, make ikpt,npw=  41    4998
- newkpt: read input wf with ikpt,npw=   6    5000, make ikpt,npw=  42    5000
- newkpt: read input wf with ikpt,npw=   8    4973, make ikpt,npw=  43    4973
- newkpt: read input wf with ikpt,npw=   9    4983, make ikpt,npw=  44    4983
- newkpt: read input wf with ikpt,npw=   9    4983, make ikpt,npw=  45    4983
- newkpt: read input wf with ikpt,npw=   8    4973, make ikpt,npw=  46    4973
- newkpt: read input wf with ikpt,npw=   6    5000, make ikpt,npw=  47    5000
- newkpt: read input wf with ikpt,npw=   3    4998, make ikpt,npw=  48    4998
- newkpt: read input wf with ikpt,npw=   2    4976, make ikpt,npw=  49    4976
- newkpt: read input wf with ikpt,npw=   5    4985, make ikpt,npw=  50    4985
- newkpt : prtvol=0 or 1, do not print more k-points.
 
--------------------------------------------------------------------------------

-inwffil : will read wavefunctions from disk file perovskite-Gamma_o_DS1_WFK
- newkpt: read input wf with ikpt,npw=  17    4971, make ikpt,npw=   1    4971
- newkpt: read input wf with ikpt,npw=  18    4975, make ikpt,npw=   2    4975
- newkpt: read input wf with ikpt,npw=  18    4975, make ikpt,npw=   3    4975
- newkpt: read input wf with ikpt,npw=  17    4971, make ikpt,npw=   4    4971
- newkpt: read input wf with ikpt,npw=  14    4988, make ikpt,npw=   5    4988
- newkpt: read input wf with ikpt,npw=   8    4973, make ikpt,npw=   6    4973
- newkpt: read input wf with ikpt,npw=   8    4973, make ikpt,npw=   7    4973
- newkpt: read input wf with ikpt,npw=  14    4988, make ikpt,npw=   8    4988
- newkpt: read input wf with ikpt,npw=  18    4975, make ikpt,npw=   9    4975
- newkpt: read input wf with ikpt,npw=  19    4953, make ikpt,npw=  10    4953
- newkpt: read input wf with ikpt,npw=  19    4953, make ikpt,npw=  11    4953
- newkpt: read input wf with ikpt,npw=  18    4975, make ikpt,npw=  12    4975
- newkpt: read input wf with ikpt,npw=  15    4981, make ikpt,npw=  13    4981
- newkpt: read input wf with ikpt,npw=   9    4983, make ikpt,npw=  14    4983
- newkpt: read input wf with ikpt,npw=   9    4983, make ikpt,npw=  15    4983
- newkpt: read input wf with ikpt,npw=  15    4981, make ikpt,npw=  16    4981
- newkpt: read input wf with ikpt,npw=  18    4975, make ikpt,npw=  17    4975
- newkpt: read input wf with ikpt,npw=  19    4953, make ikpt,npw=  18    4953
- newkpt: read input wf with ikpt,npw=  19    4953, make ikpt,npw=  19    4953
- newkpt: read input wf with ikpt,npw=  18    4975, make ikpt,npw=  20    4975
- newkpt: read input wf with ikpt,npw=  15    4981, make ikpt,npw=  21    4981
- newkpt: read input wf with ikpt,npw=   9    4983, make ikpt,npw=  22    4983
- newkpt: read input wf with ikpt,npw=   9    4983, make ikpt,npw=  23    4983
- newkpt: read input wf with ikpt,npw=  15    4981, make ikpt,npw=  24    4981
- newkpt: read input wf with ikpt,npw=  17    4971, make ikpt,npw=  25    4971
- newkpt: read input wf with ikpt,npw=  18    4975, make ikpt,npw=  26    4975
- newkpt: read input wf with ikpt,npw=  18    4975, make ikpt,npw=  27    4975
- newkpt: read input wf with ikpt,npw=  17    4971, make ikpt,npw=  28    4971
- newkpt: read input wf with ikpt,npw=  14    4988, make ikpt,npw=  29    4988
- newkpt: read input wf with ikpt,npw=   8    4973, make ikpt,npw=  30    4973
- newkpt: read input wf with ikpt,npw=   8    4973, make ikpt,npw=  31    4973
- newkpt: read input wf with ikpt,npw=  14    4988, make ikpt,npw=  32    4988
- newkpt: read input wf with ikpt,npw=  14    4988, make ikpt,npw=  33    4988
- newkpt: read input wf with ikpt,npw=  15    4981, make ikpt,npw=  34    4981
- newkpt: read input wf with ikpt,npw=  15    4981, make ikpt,npw=  35    4981
- newkpt: read input wf with ikpt,npw=  14    4988, make ikpt,npw=  36    4988
- newkpt: read input wf with ikpt,npw=  12    4985, make ikpt,npw=  37    4985
- newkpt: read input wf with ikpt,npw=   6    5000, make ikpt,npw=  38    5000
- newkpt: read input wf with ikpt,npw=   6    5000, make ikpt,npw=  39    5000
- newkpt: read input wf with ikpt,npw=  12    4985, make ikpt,npw=  40    4985
- newkpt: read input wf with ikpt,npw=   8    4973, make ikpt,npw=  41    4973
- newkpt: read input wf with ikpt,npw=   9    4983, make ikpt,npw=  42    4983
- newkpt: read input wf with ikpt,npw=   9    4983, make ikpt,npw=  43    4983
- newkpt: read input wf with ikpt,npw=   8    4973, make ikpt,npw=  44    4973
- newkpt: read input wf with ikpt,npw=   6    5000, make ikpt,npw=  45    5000
- newkpt: read input wf with ikpt,npw=   3    4998, make ikpt,npw=  46    4998
- newkpt: read input wf with ikpt,npw=   3    4998, make ikpt,npw=  47    4998
- newkpt: read input wf with ikpt,npw=   6    5000, make ikpt,npw=  48    5000
- newkpt: read input wf with ikpt,npw=   8    4973, make ikpt,npw=  49    4973
- newkpt: read input wf with ikpt,npw=   9    4983, make ikpt,npw=  50    4983
- newkpt : prtvol=0 or 1, do not print more k-points.
 
 Initialisation of the first-order wave-functions :
  ireadwf=   0
P newkpt: treating     20 bands with npw=    4971 for ikpt=   1
P newkpt: treating     20 bands with npw=    4975 for ikpt=   2
P newkpt: treating     20 bands with npw=    4975 for ikpt=   3
P newkpt: treating     20 bands with npw=    4971 for ikpt=   4
P newkpt: treating     20 bands with npw=    4988 for ikpt=   5
P newkpt: treating     20 bands with npw=    4973 for ikpt=   6
P newkpt: treating     20 bands with npw=    4973 for ikpt=   7
P newkpt: treating     20 bands with npw=    4988 for ikpt=   8
P newkpt: treating     20 bands with npw=    4975 for ikpt=   9
P newkpt: treating     20 bands with npw=    4953 for ikpt=  10
P newkpt: treating     20 bands with npw=    4953 for ikpt=  11
P newkpt: treating     20 bands with npw=    4975 for ikpt=  12
P newkpt: treating     20 bands with npw=    4981 for ikpt=  13
P newkpt: treating     20 bands with npw=    4983 for ikpt=  14
P newkpt: treating     20 bands with npw=    4983 for ikpt=  15
P newkpt: treating     20 bands with npw=    4981 for ikpt=  16
P newkpt: treating     20 bands with npw=    4975 for ikpt=  17
P newkpt: treating     20 bands with npw=    4953 for ikpt=  18
P newkpt: treating     20 bands with npw=    4953 for ikpt=  19
P newkpt: treating     20 bands with npw=    4975 for ikpt=  20
P newkpt: treating     20 bands with npw=    4981 for ikpt=  21
P newkpt: treating     20 bands with npw=    4983 for ikpt=  22
P newkpt: treating     20 bands with npw=    4983 for ikpt=  23
P newkpt: treating     20 bands with npw=    4981 for ikpt=  24
P newkpt: treating     20 bands with npw=    4971 for ikpt=  25
P newkpt: treating     20 bands with npw=    4975 for ikpt=  26
P newkpt: treating     20 bands with npw=    4975 for ikpt=  27
P newkpt: treating     20 bands with npw=    4971 for ikpt=  28
P newkpt: treating     20 bands with npw=    4988 for ikpt=  29
P newkpt: treating     20 bands with npw=    4973 for ikpt=  30
P newkpt: treating     20 bands with npw=    4973 for ikpt=  31
P newkpt: treating     20 bands with npw=    4988 for ikpt=  32
P newkpt: treating     20 bands with npw=    4988 for ikpt=  33
P newkpt: treating     20 bands with npw=    4981 for ikpt=  34
P newkpt: treating     20 bands with npw=    4981 for ikpt=  35
P newkpt: treating     20 bands with npw=    4988 for ikpt=  36
P newkpt: treating     20 bands with npw=    4985 for ikpt=  37
P newkpt: treating     20 bands with npw=    5000 for ikpt=  38
P newkpt: treating     20 bands with npw=    5000 for ikpt=  39
P newkpt: treating     20 bands with npw=    4985 for ikpt=  40
P newkpt: treating     20 bands with npw=    4973 for ikpt=  41
P newkpt: treating     20 bands with npw=    4983 for ikpt=  42
P newkpt: treating     20 bands with npw=    4983 for ikpt=  43
P newkpt: treating     20 bands with npw=    4973 for ikpt=  44
P newkpt: treating     20 bands with npw=    5000 for ikpt=  45
P newkpt: treating     20 bands with npw=    4998 for ikpt=  46
P newkpt: treating     20 bands with npw=    4998 for ikpt=  47
P newkpt: treating     20 bands with npw=    5000 for ikpt=  48
P newkpt: treating     20 bands with npw=    4973 for ikpt=  49
P newkpt: treating     20 bands with npw=    4983 for ikpt=  50
  newkpt: prtvol=0 or 1, do not print more k-points.
 

     iter   2DEtotal(Ha)        deltaE(Ha) residm    vres2
-ETOT  1   866.72873809190     -7.630E+01 1.870E+01 1.505E+07
 ETOT  2   62.895192961184     -8.038E+02 1.655E+01 1.461E+05
 ETOT  3   41.534919904107     -2.136E+01 8.343E-01 2.659E+05
 ETOT  4   69.847069925891      2.831E+01 1.515E+00 3.518E+05
 ETOT  5   8.0971434938392     -6.175E+01 1.111E+00 1.889E+04
 ETOT  6   7.5103084953028     -5.868E-01 5.157E-01 1.111E+04
 ETOT  7   6.5634146376947     -9.469E-01 3.492E-02 2.815E+03
 ETOT  8   6.0500188944552     -5.134E-01 2.065E-02 2.294E+03
 ETOT  9   6.1100114411176      5.999E-02 4.253E-03 2.677E+03
 ETOT 10   6.3573214843000      2.473E-01 3.105E-03 4.437E+03
 ETOT 11   5.8047389112699     -5.526E-01 3.043E-02 1.194E+03
 ETOT 12   7.0002803584960      1.196E+00 3.620E-02 7.514E+03
 ETOT 13   5.9731126804375     -1.027E+00 9.236E-03 1.277E+03
 ETOT 14   7.3362262666012      1.363E+00 1.497E-02 9.520E+03
 ETOT 15   5.9544512854757     -1.382E+00 1.561E-02 1.163E+03
 ETOT 16   5.3961503758935     -5.583E-01 2.973E-03 2.550E+02
 ETOT 17   5.3913685692066     -4.782E-03 2.713E-04 1.461E+02
 ETOT 18   6.0261460979862      6.348E-01 1.635E-03 2.297E+03
 ETOT 19   5.3925458067415     -6.336E-01 1.126E-03 1.607E+02
 ETOT 20   5.3945664590733      2.021E-03 1.725E-04 1.540E+02
 ETOT 21   5.4053676317560      1.080E-02 5.365E-05 2.116E+02
 ETOT 22   5.3906866862924     -1.468E-02 1.071E-04 1.368E+02
 ETOT 23   5.3881418890430     -2.545E-03 2.366E-05 1.630E+02
 ETOT 24   5.3875779081725     -5.640E-04 5.220E-07 1.595E+02
 ETOT 25   5.3874538424475     -1.241E-04 1.753E-06 1.568E+02
 ETOT 26   5.3839747081263     -3.479E-03 4.493E-06 8.002E+01
 ETOT 27   5.3818813973289     -2.093E-03 9.952E-06 1.474E+01
 ETOT 28   5.3809153866994     -9.660E-04 5.241E-06 3.528E-01
 ETOT 29   5.3809085821433     -6.805E-06 6.875E-07 8.678E-02
 ETOT 30   5.3808971311551     -1.145E-05 3.693E-08 4.512E-02
 ETOT 31   5.3808856273745     -1.150E-05 5.231E-08 7.083E-02
 ETOT 32   5.3808837377483     -1.890E-06 9.717E-08 1.647E-02
 ETOT 33   5.3808846166419      8.789E-07 6.888E-09 2.443E-02
 ETOT 34   5.3808860475228      1.431E-06 1.085E-08 3.974E-02
 ETOT 35   5.3808851136339     -9.339E-07 3.419E-09 2.670E-02
 ETOT 36   5.3808859808503      8.672E-07 6.424E-09 3.956E-02
 ETOT 37   5.3808811689082     -4.812E-06 1.652E-08 5.065E-03
 ETOT 38   5.3808815940192      4.251E-07 1.026E-09 8.125E-03
 ETOT 39   5.3808804821792     -1.112E-06 9.299E-09 5.069E-04
 ETOT 40   5.3808804901735      7.994E-09 8.641E-10 7.895E-04
 ETOT 41   5.3808804919952      1.822E-09 7.671E-11 7.652E-04
 ETOT 42   5.3808804410357     -5.096E-08 2.603E-11 3.077E-04
 ETOT 43   5.3808804216821     -1.935E-08 7.103E-11 4.729E-05
 ETOT 44   5.3808804163386     -5.344E-09 1.844E-11 1.725E-05
 ETOT 45   5.3808804156738     -6.648E-10 1.092E-11 8.980E-06
 ETOT 46   5.3808804146422     -1.032E-09 2.663E-12 4.018E-06
 ETOT 47   5.3808804144594     -1.828E-10 5.581E-13 1.637E-06
 ETOT 48   5.3808804142930     -1.664E-10 3.650E-13 5.704E-07
 ETOT 49   5.3808804142536     -3.934E-11 1.621E-13 1.003E-07
 ETOT 50   5.3808804142302     -2.342E-11 6.308E-14 1.613E-08
 ETOT 51   5.3808804142300     -2.274E-13 1.381E-14 1.098E-08
 ETOT 52   5.3808804142348      4.775E-12 2.539E-15 1.190E-08
 ETOT 53   5.3808804142368      2.046E-12 1.068E-15 4.697E-09

 At SCF step   53       vres2   =  4.70E-09 < tolvrs=  1.00E-08 =>converged.
================================================================================

 ----iterations are completed or convergence reached----

 Mean square residual over all n,k,spin=   1.1517E-16; max=  1.0679E-15
   0.0625  0.0625  0.0625    1  5.06136E-16 kpt; spin; max resid(k); each band:
 2.52E-18 2.65E-18 8.14E-19 5.05E-19 1.56E-19 2.62E-18 1.40E-18 2.65E-18
 1.33E-17 5.23E-18 2.48E-17 2.40E-16 1.45E-16 2.08E-16 4.96E-16 2.91E-16
 2.04E-16 3.28E-16 1.55E-16 5.06E-16
   0.1875  0.0625  0.0625    1  7.62640E-16 kpt; spin; max resid(k); each band:
 2.17E-18 1.56E-18 2.09E-18 7.11E-19 7.99E-20 1.95E-18 6.05E-19 2.36E-18
 3.84E-19 2.57E-18 2.99E-17 1.73E-16 2.38E-16 5.70E-17 9.99E-17 4.31E-16
 1.72E-16 5.33E-16 7.63E-16 7.59E-17
   0.3125  0.0625  0.0625    1  7.45475E-16 kpt; spin; max resid(k); each band:
 1.05E-18 1.66E-18 6.72E-19 2.04E-18 8.48E-20 1.44E-18 4.81E-19 1.49E-18
 3.16E-18 1.21E-18 2.21E-17 1.47E-16 2.86E-16 1.07E-16 2.52E-16 1.05E-16
 2.22E-16 7.17E-16 7.45E-16 1.14E-16
   0.4375  0.0625  0.0625    1  8.06087E-16 kpt; spin; max resid(k); each band:
 1.95E-18 1.77E-18 1.21E-18 6.88E-19 2.34E-19 2.34E-18 4.03E-19 1.71E-18
 3.42E-18 2.36E-18 1.03E-17 1.22E-16 3.40E-16 6.45E-17 1.24E-16 2.89E-16
 2.95E-16 8.06E-16 7.31E-16 8.80E-17
  -0.4375  0.0625  0.0625    1  7.94704E-16 kpt; spin; max resid(k); each band:
 2.56E-18 1.86E-18 1.88E-18 6.67E-19 4.05E-19 2.34E-18 5.36E-19 3.75E-18
 3.71E-18 1.28E-18 6.16E-18 1.14E-16 3.45E-16 4.96E-17 1.80E-16 4.77E-16
 5.52E-16 7.95E-16 6.20E-16 6.30E-17
  -0.3125  0.0625  0.0625    1  8.57037E-16 kpt; spin; max resid(k); each band:
 2.78E-18 1.68E-18 6.72E-19 2.35E-18 4.93E-19 3.82E-18 7.98E-19 5.79E-18
 3.03E-18 4.49E-18 7.79E-18 1.42E-16 2.51E-16 1.07E-16 3.38E-16 4.38E-16
 4.01E-16 8.57E-16 5.82E-16 1.39E-16
  -0.1875  0.0625  0.0625    1  7.00296E-16 kpt; spin; max resid(k); each band:
 2.79E-18 9.15E-19 2.27E-18 6.72E-19 4.24E-19 3.16E-18 9.70E-19 4.66E-18
 1.43E-17 4.19E-18 5.96E-18 1.95E-16 2.25E-16 1.37E-16 3.57E-16 3.85E-16
 3.97E-16 7.00E-16 5.62E-16 2.10E-16
  -0.0625  0.0625  0.0625    1  6.26447E-16 kpt; spin; max resid(k); each band:
 2.65E-18 1.40E-18 1.38E-18 2.52E-18 2.79E-19 3.15E-18 1.61E-18 3.11E-18
 1.02E-17 2.34E-17 1.44E-18 2.85E-16 1.93E-16 1.83E-16 5.35E-16 6.26E-16
 2.01E-16 6.05E-16 2.78E-16 2.58E-16
   0.0625  0.1875  0.0625    1  4.81969E-16 kpt; spin; max resid(k); each band:
 2.21E-18 1.90E-18 2.00E-18 5.89E-19 1.62E-19 2.46E-18 2.65E-18 3.62E-18
 1.39E-17 5.76E-18 2.14E-17 2.07E-16 1.99E-16 2.41E-16 4.63E-16 3.71E-16
 3.66E-16 2.71E-16 2.52E-16 4.82E-16
   0.1875  0.1875  0.0625    1  5.00943E-16 kpt; spin; max resid(k); each band:
 1.64E-18 2.03E-18 6.03E-19 1.46E-18 1.02E-19 1.86E-18 4.04E-18 6.40E-19
 6.72E-18 9.35E-18 2.46E-17 2.38E-16 8.41E-17 2.37E-16 2.57E-16 3.77E-16
 5.01E-16 4.01E-16 3.75E-16 4.32E-16
   0.3125  0.1875  0.0625    1  6.85164E-16 kpt; spin; max resid(k); each band:
 9.42E-19 1.59E-18 1.79E-18 9.09E-19 1.28E-19 1.56E-18 1.97E-18 8.33E-19
 1.06E-17 6.59E-18 1.65E-17 1.94E-16 8.81E-17 2.37E-16 3.13E-16 1.09E-16
 6.85E-16 4.95E-16 3.53E-16 4.88E-16
   0.4375  0.1875  0.0625    1  9.75893E-16 kpt; spin; max resid(k); each band:
 1.27E-18 1.72E-18 8.31E-19 9.83E-19 2.77E-19 2.73E-18 9.75E-19 1.35E-18
 1.01E-17 5.32E-18 7.21E-18 1.55E-16 1.41E-16 2.19E-16 3.13E-16 5.37E-17
 9.76E-16 5.74E-16 2.80E-16 5.89E-16
  -0.4375  0.1875  0.0625    1  1.03627E-15 kpt; spin; max resid(k); each band:
 2.08E-18 1.71E-18 1.92E-18 1.71E-18 4.25E-19 2.25E-18 1.55E-18 3.36E-18
 4.03E-18 2.83E-18 4.55E-18 1.40E-16 2.31E-16 2.43E-16 2.55E-16 7.20E-17
 1.04E-15 5.02E-16 3.01E-16 6.51E-16
  -0.3125  0.1875  0.0625    1  9.16102E-16 kpt; spin; max resid(k); each band:
 2.44E-18 1.40E-18 2.08E-18 1.91E-18 4.86E-19 4.21E-18 3.89E-18 4.47E-18
 3.99E-18 5.42E-18 4.56E-18 2.12E-16 1.16E-16 3.22E-16 3.48E-16 1.28E-16
 9.16E-16 6.81E-16 3.42E-16 5.73E-16
  -0.1875  0.1875  0.0625    1  6.63822E-16 kpt; spin; max resid(k); each band:
 2.53E-18 1.74E-18 2.38E-18 1.94E-18 4.09E-19 3.28E-18 4.27E-18 1.79E-18
 2.05E-17 1.01E-17 3.19E-18 2.91E-16 1.25E-16 2.35E-16 4.09E-16 3.02E-16
 4.81E-16 6.64E-16 3.52E-16 4.56E-16
  -0.0625  0.1875  0.0625    1  4.63938E-16 kpt; spin; max resid(k); each band:
 2.42E-18 1.98E-18 9.27E-19 2.20E-18 2.73E-19 3.04E-18 3.34E-18 3.89E-18
 1.27E-17 1.99E-17 5.60E-18 2.40E-16 2.02E-16 1.94E-16 3.93E-16 4.64E-16
 3.20E-16 3.49E-16 3.32E-16 2.82E-16
   0.0625  0.3125  0.0625    1  3.97856E-16 kpt; spin; max resid(k); each band:
 9.78E-19 1.93E-18 5.83E-19 1.62E-18 2.50E-19 2.40E-18 2.21E-18 5.37E-18
 3.73E-18 1.86E-17 1.68E-17 1.25E-16 1.98E-16 2.03E-16 3.98E-16 3.18E-16
 2.80E-16 1.78E-16 2.24E-16 3.86E-16
   0.1875  0.3125  0.0625    1  3.95289E-16 kpt; spin; max resid(k); each band:
 8.89E-19 1.98E-18 1.13E-18 9.32E-19 2.14E-19 1.83E-18 3.55E-18 4.10E-18
 4.95E-18 1.01E-17 1.81E-17 1.75E-16 1.74E-16 2.04E-16 2.03E-16 3.38E-16
 3.11E-16 3.94E-16 3.57E-16 3.95E-16
   0.3125  0.3125  0.0625    1  5.12066E-16 kpt; spin; max resid(k); each band:
 8.78E-19 2.05E-18 7.12E-19 1.22E-18 2.37E-19 1.75E-18 5.57E-18 1.93E-18
 5.77E-18 6.84E-18 1.59E-17 1.75E-16 6.78E-17 1.28E-16 2.49E-16 2.57E-16
 4.10E-16 4.37E-16 3.33E-16 5.12E-16
   0.4375  0.3125  0.0625    1  7.77872E-16 kpt; spin; max resid(k); each band:
 9.77E-19 1.26E-18 7.01E-19 1.70E-18 3.39E-19 4.00E-18 3.67E-18 1.80E-18
 3.34E-18 4.79E-18 6.20E-18 1.77E-16 9.73E-17 9.65E-17 2.28E-16 9.09E-17
 5.97E-16 5.91E-16 4.14E-16 7.78E-16
  -0.4375  0.3125  0.0625    1  9.43242E-16 kpt; spin; max resid(k); each band:
 1.07E-18 1.21E-18 2.01E-18 1.88E-18 4.19E-19 4.40E-18 8.34E-18 2.21E-18
 1.62E-18 2.58E-18 6.33E-18 1.48E-16 2.02E-16 8.54E-17 2.76E-16 6.21E-17
 4.25E-16 7.14E-16 3.86E-16 9.43E-16
  -0.3125  0.3125  0.0625    1  6.31272E-16 kpt; spin; max resid(k); each band:
 1.17E-18 1.93E-18 2.40E-18 1.95E-18 4.36E-19 3.27E-18 1.25E-17 2.89E-18
 8.25E-18 4.09E-18 3.86E-18 2.43E-16 9.50E-17 2.84E-16 2.02E-16 1.40E-16
 4.73E-16 4.85E-16 5.44E-16 6.31E-16
  -0.1875  0.3125  0.0625    1  5.27133E-16 kpt; spin; max resid(k); each band:
 1.16E-18 2.04E-18 7.93E-19 1.86E-18 3.80E-19 3.68E-18 5.13E-18 7.15E-18
 1.46E-17 7.26E-18 4.38E-18 1.98E-16 2.80E-16 2.30E-16 2.36E-16 2.32E-16
 3.98E-16 4.17E-16 3.78E-16 5.27E-16
  -0.0625  0.3125  0.0625    1  4.51048E-16 kpt; spin; max resid(k); each band:
 1.08E-18 1.99E-18 1.91E-18 5.72E-19 3.10E-19 3.05E-18 2.87E-18 5.38E-18
 2.04E-17 8.64E-18 1.12E-17 1.22E-16 2.45E-16 2.06E-16 4.51E-16 2.85E-16
 2.75E-16 3.12E-16 3.48E-16 2.70E-16
   0.0625  0.4375  0.0625    1  4.21123E-16 kpt; spin; max resid(k); each band:
 1.86E-18 1.97E-18 1.31E-18 5.72E-19 3.84E-19 4.21E-18 2.84E-18 9.59E-18
 2.68E-18 1.59E-17 8.14E-18 5.21E-17 1.94E-16 2.75E-16 3.90E-16 3.19E-16
 1.35E-16 1.58E-16 2.84E-16 4.21E-16
   0.1875  0.4375  0.0625    1  5.68622E-16 kpt; spin; max resid(k); each band:
 1.16E-18 1.98E-18 5.86E-19 1.59E-18 3.59E-19 2.97E-18 2.40E-18 8.86E-18
 4.10E-18 1.40E-17 1.14E-17 4.02E-17 8.16E-17 1.20E-16 2.22E-16 3.06E-16
 1.84E-16 2.98E-16 5.69E-16 4.02E-16
   0.3125  0.4375  0.0625    1  4.28941E-16 kpt; spin; max resid(k); each band:
 9.69E-19 1.84E-18 1.04E-18 1.79E-18 3.43E-19 1.99E-18 4.78E-18 6.87E-18
 4.84E-18 2.49E-18 1.08E-17 7.42E-17 4.54E-17 1.06E-16 1.70E-16 2.61E-16
 3.28E-16 3.51E-16 3.36E-16 4.29E-16
   0.4375  0.4375  0.0625    1  6.10933E-16 kpt; spin; max resid(k); each band:
 1.32E-18 6.85E-19 9.59E-19 1.93E-18 3.78E-19 2.30E-18 8.19E-18 9.74E-18
 3.01E-18 3.06E-18 1.33E-17 1.28E-16 4.46E-17 8.93E-17 2.19E-16 1.73E-16
 3.88E-16 4.98E-16 3.62E-16 6.11E-16
  -0.4375  0.4375  0.0625    1  9.77108E-16 kpt; spin; max resid(k); each band:
 1.87E-18 2.17E-18 1.41E-18 1.99E-18 3.75E-19 4.73E-18 8.80E-18 4.44E-18
 3.96E-18 2.12E-18 8.81E-18 1.15E-16 1.22E-16 8.92E-17 1.25E-16 1.38E-16
 3.00E-16 5.09E-16 3.88E-16 9.77E-16
  -0.3125  0.4375  0.0625    1  5.89351E-16 kpt; spin; max resid(k); each band:
 2.14E-18 2.18E-18 5.19E-19 1.81E-18 3.48E-19 7.51E-18 1.18E-17 1.14E-17
 1.18E-17 5.22E-18 3.07E-18 1.15E-16 1.70E-16 1.64E-16 1.15E-16 1.20E-16
 4.13E-16 4.86E-16 5.89E-16 5.48E-16
  -0.1875  0.4375  0.0625    1  6.14648E-16 kpt; spin; max resid(k); each band:
 2.21E-18 2.14E-18 8.10E-19 1.14E-18 3.49E-19 7.39E-18 6.07E-18 8.08E-18
 1.32E-17 9.81E-18 5.41E-18 7.18E-17 2.23E-16 2.44E-16 1.88E-16 1.73E-16
 2.57E-16 4.00E-16 6.15E-16 6.10E-16
  -0.0625  0.4375  0.0625    1  4.00718E-16 kpt; spin; max resid(k); each band:
 2.11E-18 2.08E-18 5.62E-19 1.11E-18 3.82E-19 5.50E-18 3.66E-18 9.24E-18
 6.05E-18 3.27E-18 1.25E-17 5.27E-17 2.59E-16 2.25E-16 4.01E-16 2.53E-16
 1.72E-16 3.23E-16 3.80E-16 3.88E-16
   0.0625 -0.4375  0.0625    1  3.81973E-16 kpt; spin; max resid(k); each band:
 2.46E-18 1.98E-18 2.11E-18 8.14E-19 4.51E-19 4.60E-18 3.27E-18 1.33E-17
 3.17E-18 1.47E-17 2.20E-18 9.65E-18 1.90E-16 2.74E-16 2.72E-16 2.87E-16
 1.13E-16 2.74E-16 2.97E-16 3.82E-16
   0.1875 -0.4375  0.0625    1  4.58131E-16 kpt; spin; max resid(k); each band:
 1.91E-18 1.88E-18 1.51E-18 1.87E-18 4.16E-19 3.73E-18 1.77E-18 1.32E-17
 2.71E-18 1.12E-17 3.47E-18 1.95E-17 7.78E-17 1.56E-16 1.50E-16 2.43E-16
 3.94E-16 2.41E-16 4.58E-16 4.37E-16
   0.3125 -0.4375  0.0625    1  5.01160E-16 kpt; spin; max resid(k); each band:
 1.10E-18 1.66E-18 1.69E-18 1.96E-18 3.50E-19 3.11E-18 3.52E-18 1.18E-17
 4.11E-18 3.52E-18 7.75E-18 3.36E-17 1.03E-17 1.23E-16 1.47E-16 1.47E-16
 4.05E-16 3.70E-16 5.01E-16 2.85E-16
   0.4375 -0.4375  0.0625    1  6.45182E-16 kpt; spin; max resid(k); each band:
 1.95E-18 2.05E-18 1.55E-18 2.04E-18 3.22E-19 3.88E-18 5.36E-18 6.00E-18
 4.39E-18 5.88E-18 8.84E-18 8.51E-17 1.27E-17 7.20E-17 9.45E-17 1.19E-16
 4.42E-16 3.77E-16 6.45E-16 3.78E-16
  -0.4375 -0.4375  0.0625    1  6.33795E-16 kpt; spin; max resid(k); each band:
 2.48E-18 7.28E-19 2.32E-18 1.96E-18 2.43E-19 6.82E-18 5.13E-18 7.71E-18
 5.07E-18 7.79E-18 8.72E-18 1.05E-16 2.63E-17 1.41E-16 5.57E-17 6.26E-17
 3.91E-16 6.34E-16 4.87E-16 3.58E-16
  -0.3125 -0.4375  0.0625    1  5.99440E-16 kpt; spin; max resid(k); each band:
 2.70E-18 2.35E-18 9.46E-19 1.02E-18 2.04E-19 8.33E-18 3.01E-18 1.16E-17
 7.84E-18 7.92E-18 4.33E-18 5.75E-17 1.34E-16 1.83E-16 1.03E-16 4.53E-17
 4.63E-16 4.98E-16 5.99E-16 3.22E-16
  -0.1875 -0.4375  0.0625    1  5.66676E-16 kpt; spin; max resid(k); each band:
 2.75E-18 2.28E-18 7.57E-19 1.16E-18 2.89E-19 5.62E-18 2.94E-18 1.21E-17
 1.78E-17 5.43E-18 6.16E-18 2.31E-17 2.04E-16 2.28E-16 1.70E-16 1.06E-16
 5.67E-16 4.47E-16 5.38E-16 4.71E-16
  -0.0625 -0.4375  0.0625    1  4.57740E-16 kpt; spin; max resid(k); each band:
 2.63E-18 2.12E-18 9.37E-19 2.04E-18 4.13E-19 5.49E-18 2.68E-18 1.28E-17
 1.53E-17 4.01E-18 5.95E-18 1.32E-17 3.12E-16 2.45E-16 4.58E-16 2.38E-16
 1.59E-16 2.91E-16 2.69E-16 3.20E-16
   0.0625 -0.3125  0.0625    1  5.89843E-16 kpt; spin; max resid(k); each band:
 2.62E-18 1.64E-18 9.55E-19 2.21E-18 4.15E-19 3.30E-18 2.56E-18 1.40E-17
 3.41E-18 4.69E-18 3.04E-18 1.08E-16 1.70E-16 2.83E-16 2.24E-16 2.30E-16
 2.37E-16 5.90E-16 2.62E-16 3.09E-16
   0.1875 -0.3125  0.0625    1  5.98882E-16 kpt; spin; max resid(k); each band:
 2.22E-18 1.35E-18 1.67E-18 2.02E-18 3.57E-19 3.42E-18 3.52E-18 1.41E-17
 4.04E-18 5.41E-18 2.04E-18 9.60E-17 1.68E-16 1.84E-16 1.62E-16 1.08E-16
 5.99E-16 4.77E-16 4.03E-16 1.66E-16
   0.3125 -0.3125  0.0625    1  5.95056E-16 kpt; spin; max resid(k); each band:
 7.65E-19 1.65E-18 2.14E-18 2.02E-18 2.64E-19 4.40E-18 1.62E-17 7.70E-18
 8.10E-18 7.08E-18 3.37E-18 9.74E-17 1.41E-16 1.11E-16 1.15E-16 7.37E-17
 4.31E-16 4.67E-16 5.95E-16 1.82E-16
   0.4375 -0.3125  0.0625    1  6.16205E-16 kpt; spin; max resid(k); each band:
 2.18E-18 1.91E-18 5.92E-19 2.01E-18 2.11E-19 5.62E-18 1.79E-17 2.39E-18
 8.61E-18 1.04E-17 3.73E-18 1.09E-16 1.02E-16 1.67E-16 7.61E-17 5.09E-17
 4.35E-16 5.05E-16 6.16E-16 1.33E-16
  -0.4375 -0.3125  0.0625    1  6.73218E-16 kpt; spin; max resid(k); each band:
 2.64E-18 2.07E-18 1.28E-18 1.64E-18 1.35E-19 1.45E-17 2.15E-17 5.39E-18
 1.04E-17 1.45E-17 4.14E-18 1.29E-16 5.42E-17 1.85E-16 6.88E-17 2.10E-17
 4.71E-16 6.73E-16 5.58E-16 5.35E-17
  -0.3125 -0.3125  0.0625    1  6.97472E-16 kpt; spin; max resid(k); each band:
 2.85E-18 2.43E-18 6.47E-19 1.07E-18 1.44E-19 8.64E-18 5.87E-18 1.14E-17
 1.25E-17 5.08E-18 8.46E-18 1.49E-16 2.16E-16 2.93E-17 1.08E-16 1.29E-17
 6.97E-16 5.03E-16 5.70E-16 1.52E-16
  -0.1875 -0.3125  0.0625    1  8.49091E-16 kpt; spin; max resid(k); each band:
 2.90E-18 2.26E-18 7.26E-19 1.87E-18 2.88E-19 1.18E-17 3.06E-18 1.39E-17
 1.24E-17 2.83E-18 5.61E-18 1.45E-16 2.14E-16 2.54E-16 1.56E-16 5.43E-17
 8.49E-16 6.32E-16 3.56E-16 3.53E-16
  -0.0625 -0.3125  0.0625    1  6.81517E-16 kpt; spin; max resid(k); each band:
 2.77E-18 1.96E-18 2.35E-18 1.21E-18 4.04E-19 3.79E-18 2.99E-18 1.36E-17
 5.51E-18 5.13E-18 1.03E-18 1.32E-16 2.65E-16 2.16E-16 3.13E-16 2.00E-16
 3.49E-16 6.82E-16 2.91E-16 2.68E-16
   0.0625 -0.1875  0.0625    1  7.90357E-16 kpt; spin; max resid(k); each band:
 2.66E-18 9.67E-19 2.25E-18 9.35E-19 3.16E-19 4.53E-18 2.61E-18 1.12E-17
 8.49E-18 5.54E-18 6.80E-18 2.93E-16 1.56E-16 2.18E-16 2.50E-16 1.60E-16
 5.86E-16 7.90E-16 2.38E-16 3.19E-16
   0.1875 -0.1875  0.0625    1  5.72530E-16 kpt; spin; max resid(k); each band:
 2.33E-18 1.52E-18 2.11E-18 1.98E-18 2.37E-19 4.67E-18 5.19E-18 5.18E-18
 1.95E-17 1.12E-18 7.39E-18 2.00E-16 2.62E-16 1.84E-16 2.78E-16 2.23E-17
 4.99E-16 5.73E-16 4.41E-16 2.77E-16
 outwf : prtvol=0 or 1, do not print more k-points.


 Thirteen components of 2nd-order total energy (hartree) are
 1,2,3: 0th-order hamiltonian combined with 1st-order wavefunctions
     kin0=   8.31214818E+02 eigvalue=   3.94910600E+01  local=  -4.61947153E+02
 4,5,6: 1st-order hamiltonian combined with 1st and 0th-order wfs
 loc psp =   3.64570512E+02  Hartree=   2.43379738E+02     xc=  -6.88658645E+01
 note that "loc psp" includes a xc core correction that could be resolved
 7,8,9: eventually, occupation + non-local contributions
    edocc=   0.00000000E+00     enl0=   3.54375482E+02   enl1=  -2.23986667E+03
 1-9 gives the relaxation energy (to be shifted if some occ is /=2.0)
   erelax=  -9.37648080E+02
 10,11,12 Non-relaxation  contributions : frozen-wavefunctions and Ewald
 fr.local=  -4.05686417E+02 fr.nonlo=   1.12361517E+03  Ewald=   2.25100208E+02
 13,14 Frozen wf xc core corrections (1) and (2)
 frxc 1  =   0.00000000E+00  frxc 2 =   0.00000000E+00
 Resulting in :
 2DEtotal=    0.5380880414E+01 Ha. Also 2DEtotal=    0.146421202457E+03 eV
    (2DErelax=   -9.3764807990E+02 Ha. 2DEnonrelax=    9.4302896031E+02 Ha)
    (  non-var. 2DEtotal :    5.3808802259E+00 Ha)


--------------------------------------------------------------------------------
 Perturbation wavevector (in red.coord.)   0.250000  0.250000  0.250000
 Perturbation : displacement of atom   2   along direction   1
 Found     2 symmetries that leave the perturbation invariant.
 symkpt : the number of k-points, thanks to the symmetries,
 is reduced to   288 .

--------------------------------------------------------------------------------

-inwffil : will read wavefunctions from disk file perovskite-Gamma_o_DS1_WFK
- newkpt: read input wf with ikpt,npw=   1    4996, make ikpt,npw=   1    4996
- newkpt: read input wf with ikpt,npw=   2    4976, make ikpt,npw=   2    4976
- newkpt: read input wf with ikpt,npw=   3    4998, make ikpt,npw=   3    4998
- newkpt: read input wf with ikpt,npw=   4    4986, make ikpt,npw=   4    4986
- newkpt: read input wf with ikpt,npw=   4    4986, make ikpt,npw=   5    4986
- newkpt: read input wf with ikpt,npw=   3    4998, make ikpt,npw=   6    4998
- newkpt: read input wf with ikpt,npw=   2    4976, make ikpt,npw=   7    4976
- newkpt: read input wf with ikpt,npw=   1    4996, make ikpt,npw=   8    4996
- newkpt: read input wf with ikpt,npw=   2    4976, make ikpt,npw=   9    4976
- newkpt: read input wf with ikpt,npw=   5    4985, make ikpt,npw=  10    4985
- newkpt: read input wf with ikpt,npw=   6    5000, make ikpt,npw=  11    5000
- newkpt: read input wf with ikpt,npw=   7    4987, make ikpt,npw=  12    4987
- newkpt: read input wf with ikpt,npw=   7    4987, make ikpt,npw=  13    4987
- newkpt: read input wf with ikpt,npw=   6    5000, make ikpt,npw=  14    5000
- newkpt: read input wf with ikpt,npw=   5    4985, make ikpt,npw=  15    4985
- newkpt: read input wf with ikpt,npw=   2    4976, make ikpt,npw=  16    4976
- newkpt: read input wf with ikpt,npw=   3    4998, make ikpt,npw=  17    4998
- newkpt: read input wf with ikpt,npw=   6    5000, make ikpt,npw=  18    5000
- newkpt: read input wf with ikpt,npw=   8    4973, make ikpt,npw=  19    4973
- newkpt: read input wf with ikpt,npw=   9    4983, make ikpt,npw=  20    4983
- newkpt: read input wf with ikpt,npw=   9    4983, make ikpt,npw=  21    4983
- newkpt: read input wf with ikpt,npw=   8    4973, make ikpt,npw=  22    4973
- newkpt: read input wf with ikpt,npw=   6    5000, make ikpt,npw=  23    5000
- newkpt: read input wf with ikpt,npw=   3    4998, make ikpt,npw=  24    4998
- newkpt: read input wf with ikpt,npw=   4    4986, make ikpt,npw=  25    4986
- newkpt: read input wf with ikpt,npw=   7    4987, make ikpt,npw=  26    4987
- newkpt: read input wf with ikpt,npw=   9    4983, make ikpt,npw=  27    4983
- newkpt: read input wf with ikpt,npw=  10    4989, make ikpt,npw=  28    4989
- newkpt: read input wf with ikpt,npw=  10    4989, make ikpt,npw=  29    4989
- newkpt: read input wf with ikpt,npw=   9    4983, make ikpt,npw=  30    4983
- newkpt: read input wf with ikpt,npw=   7    4987, make ikpt,npw=  31    4987
- newkpt: read input wf with ikpt,npw=   4    4986, make ikpt,npw=  32    4986
- newkpt: read input wf with ikpt,npw=   4    4986, make ikpt,npw=  33    4986
- newkpt: read input wf with ikpt,npw=   7    4987, make ikpt,npw=  34    4987
- newkpt: read input wf with ikpt,npw=   9    4983, make ikpt,npw=  35    4983
- newkpt: read input wf with ikpt,npw=  10    4989, make ikpt,npw=  36    4989
- newkpt: read input wf with ikpt,npw=  10    4989, make ikpt,npw=  37    4989
- newkpt: read input wf with ikpt,npw=   9    4983, make ikpt,npw=  38    4983
- newkpt: read input wf with ikpt,npw=   7    4987, make ikpt,npw=  39    4987
- newkpt: read input wf with ikpt,npw=   4    4986, make ikpt,npw=  40    4986
- newkpt: read input wf with ikpt,npw=   3    4998, make ikpt,npw=  41    4998
- newkpt: read input wf with ikpt,npw=   6    5000, make ikpt,npw=  42    5000
- newkpt: read input wf with ikpt,npw=   8    4973, make ikpt,npw=  43    4973
- newkpt: read input wf with ikpt,npw=   9    4983, make ikpt,npw=  44    4983
- newkpt: read input wf with ikpt,npw=   9    4983, make ikpt,npw=  45    4983
- newkpt: read input wf with ikpt,npw=   8    4973, make ikpt,npw=  46    4973
- newkpt: read input wf with ikpt,npw=   6    5000, make ikpt,npw=  47    5000
- newkpt: read input wf with ikpt,npw=   3    4998, make ikpt,npw=  48    4998
- newkpt: read input wf with ikpt,npw=   2    4976, make ikpt,npw=  49    4976
- newkpt: read input wf with ikpt,npw=   5    4985, make ikpt,npw=  50    4985
- newkpt : prtvol=0 or 1, do not print more k-points.
 
--------------------------------------------------------------------------------

-inwffil : will read wavefunctions from disk file perovskite-Gamma_o_DS1_WFK
- newkpt: read input wf with ikpt,npw=  17    4971, make ikpt,npw=   1    4971
- newkpt: read input wf with ikpt,npw=  18    4975, make ikpt,npw=   2    4975
- newkpt: read input wf with ikpt,npw=  18    4975, make ikpt,npw=   3    4975
- newkpt: read input wf with ikpt,npw=  17    4971, make ikpt,npw=   4    4971
- newkpt: read input wf with ikpt,npw=  14    4988, make ikpt,npw=   5    4988
- newkpt: read input wf with ikpt,npw=   8    4973, make ikpt,npw=   6    4973
- newkpt: read input wf with ikpt,npw=   8    4973, make ikpt,npw=   7    4973
- newkpt: read input wf with ikpt,npw=  14    4988, make ikpt,npw=   8    4988
- newkpt: read input wf with ikpt,npw=  18    4975, make ikpt,npw=   9    4975
- newkpt: read input wf with ikpt,npw=  19    4953, make ikpt,npw=  10    4953
- newkpt: read input wf with ikpt,npw=  19    4953, make ikpt,npw=  11    4953
- newkpt: read input wf with ikpt,npw=  18    4975, make ikpt,npw=  12    4975
- newkpt: read input wf with ikpt,npw=  15    4981, make ikpt,npw=  13    4981
- newkpt: read input wf with ikpt,npw=   9    4983, make ikpt,npw=  14    4983
- newkpt: read input wf with ikpt,npw=   9    4983, make ikpt,npw=  15    4983
- newkpt: read input wf with ikpt,npw=  15    4981, make ikpt,npw=  16    4981
- newkpt: read input wf with ikpt,npw=  18    4975, make ikpt,npw=  17    4975
- newkpt: read input wf with ikpt,npw=  19    4953, make ikpt,npw=  18    4953
- newkpt: read input wf with ikpt,npw=  19    4953, make ikpt,npw=  19    4953
- newkpt: read input wf with ikpt,npw=  18    4975, make ikpt,npw=  20    4975
- newkpt: read input wf with ikpt,npw=  15    4981, make ikpt,npw=  21    4981
- newkpt: read input wf with ikpt,npw=   9    4983, make ikpt,npw=  22    4983
- newkpt: read input wf with ikpt,npw=   9    4983, make ikpt,npw=  23    4983
- newkpt: read input wf with ikpt,npw=  15    4981, make ikpt,npw=  24    4981
- newkpt: read input wf with ikpt,npw=  17    4971, make ikpt,npw=  25    4971
- newkpt: read input wf with ikpt,npw=  18    4975, make ikpt,npw=  26    4975
- newkpt: read input wf with ikpt,npw=  18    4975, make ikpt,npw=  27    4975
- newkpt: read input wf with ikpt,npw=  17    4971, make ikpt,npw=  28    4971
- newkpt: read input wf with ikpt,npw=  14    4988, make ikpt,npw=  29    4988
- newkpt: read input wf with ikpt,npw=   8    4973, make ikpt,npw=  30    4973
- newkpt: read input wf with ikpt,npw=   8    4973, make ikpt,npw=  31    4973
- newkpt: read input wf with ikpt,npw=  14    4988, make ikpt,npw=  32    4988
- newkpt: read input wf with ikpt,npw=  14    4988, make ikpt,npw=  33    4988
- newkpt: read input wf with ikpt,npw=  15    4981, make ikpt,npw=  34    4981
- newkpt: read input wf with ikpt,npw=  15    4981, make ikpt,npw=  35    4981
- newkpt: read input wf with ikpt,npw=  14    4988, make ikpt,npw=  36    4988
- newkpt: read input wf with ikpt,npw=  12    4985, make ikpt,npw=  37    4985
- newkpt: read input wf with ikpt,npw=   6    5000, make ikpt,npw=  38    5000
- newkpt: read input wf with ikpt,npw=   6    5000, make ikpt,npw=  39    5000
- newkpt: read input wf with ikpt,npw=  12    4985, make ikpt,npw=  40    4985
- newkpt: read input wf with ikpt,npw=   8    4973, make ikpt,npw=  41    4973
- newkpt: read input wf with ikpt,npw=   9    4983, make ikpt,npw=  42    4983
- newkpt: read input wf with ikpt,npw=   9    4983, make ikpt,npw=  43    4983
- newkpt: read input wf with ikpt,npw=   8    4973, make ikpt,npw=  44    4973
- newkpt: read input wf with ikpt,npw=   6    5000, make ikpt,npw=  45    5000
- newkpt: read input wf with ikpt,npw=   3    4998, make ikpt,npw=  46    4998
- newkpt: read input wf with ikpt,npw=   3    4998, make ikpt,npw=  47    4998
- newkpt: read input wf with ikpt,npw=   6    5000, make ikpt,npw=  48    5000
- newkpt: read input wf with ikpt,npw=   8    4973, make ikpt,npw=  49    4973
- newkpt: read input wf with ikpt,npw=   9    4983, make ikpt,npw=  50    4983
- newkpt : prtvol=0 or 1, do not print more k-points.
 
 Initialisation of the first-order wave-functions :
  ireadwf=   0
P newkpt: treating     20 bands with npw=    4971 for ikpt=   1
P newkpt: treating     20 bands with npw=    4975 for ikpt=   2
P newkpt: treating     20 bands with npw=    4975 for ikpt=   3
P newkpt: treating     20 bands with npw=    4971 for ikpt=   4
P newkpt: treating     20 bands with npw=    4988 for ikpt=   5
P newkpt: treating     20 bands with npw=    4973 for ikpt=   6
P newkpt: treating     20 bands with npw=    4973 for ikpt=   7
P newkpt: treating     20 bands with npw=    4988 for ikpt=   8
P newkpt: treating     20 bands with npw=    4975 for ikpt=   9
P newkpt: treating     20 bands with npw=    4953 for ikpt=  10
P newkpt: treating     20 bands with npw=    4953 for ikpt=  11
P newkpt: treating     20 bands with npw=    4975 for ikpt=  12
P newkpt: treating     20 bands with npw=    4981 for ikpt=  13
P newkpt: treating     20 bands with npw=    4983 for ikpt=  14
P newkpt: treating     20 bands with npw=    4983 for ikpt=  15
P newkpt: treating     20 bands with npw=    4981 for ikpt=  16
P newkpt: treating     20 bands with npw=    4975 for ikpt=  17
P newkpt: treating     20 bands with npw=    4953 for ikpt=  18
P newkpt: treating     20 bands with npw=    4953 for ikpt=  19
P newkpt: treating     20 bands with npw=    4975 for ikpt=  20
P newkpt: treating     20 bands with npw=    4981 for ikpt=  21
P newkpt: treating     20 bands with npw=    4983 for ikpt=  22
P newkpt: treating     20 bands with npw=    4983 for ikpt=  23
P newkpt: treating     20 bands with npw=    4981 for ikpt=  24
P newkpt: treating     20 bands with npw=    4971 for ikpt=  25
P newkpt: treating     20 bands with npw=    4975 for ikpt=  26
P newkpt: treating     20 bands with npw=    4975 for ikpt=  27
P newkpt: treating     20 bands with npw=    4971 for ikpt=  28
P newkpt: treating     20 bands with npw=    4988 for ikpt=  29
P newkpt: treating     20 bands with npw=    4973 for ikpt=  30
P newkpt: treating     20 bands with npw=    4973 for ikpt=  31
P newkpt: treating     20 bands with npw=    4988 for ikpt=  32
P newkpt: treating     20 bands with npw=    4988 for ikpt=  33
P newkpt: treating     20 bands with npw=    4981 for ikpt=  34
P newkpt: treating     20 bands with npw=    4981 for ikpt=  35
P newkpt: treating     20 bands with npw=    4988 for ikpt=  36
P newkpt: treating     20 bands with npw=    4985 for ikpt=  37
P newkpt: treating     20 bands with npw=    5000 for ikpt=  38
P newkpt: treating     20 bands with npw=    5000 for ikpt=  39
P newkpt: treating     20 bands with npw=    4985 for ikpt=  40
P newkpt: treating     20 bands with npw=    4973 for ikpt=  41
P newkpt: treating     20 bands with npw=    4983 for ikpt=  42
P newkpt: treating     20 bands with npw=    4983 for ikpt=  43
P newkpt: treating     20 bands with npw=    4973 for ikpt=  44
P newkpt: treating     20 bands with npw=    5000 for ikpt=  45
P newkpt: treating     20 bands with npw=    4998 for ikpt=  46
P newkpt: treating     20 bands with npw=    4998 for ikpt=  47
P newkpt: treating     20 bands with npw=    5000 for ikpt=  48
P newkpt: treating     20 bands with npw=    4973 for ikpt=  49
P newkpt: treating     20 bands with npw=    4983 for ikpt=  50
  newkpt: prtvol=0 or 1, do not print more k-points.
 

     iter   2DEtotal(Ha)        deltaE(Ha) residm    vres2
-ETOT  1   3426.0168301580     -1.411E+03 1.599E+02 3.012E+07
 ETOT  2   686.87694222722     -2.739E+03 2.396E+01 8.848E+06
 ETOT  3   251.23635984274     -4.356E+02 4.077E+01 1.626E+06
 ETOT  4   64.211788031379     -1.870E+02 3.817E+00 1.134E+06
 ETOT  5   24.082230846764     -4.013E+01 1.598E+00 2.299E+05
 ETOT  6   16.603798804801     -7.478E+00 6.309E-01 1.208E+05
 ETOT  7   14.066044211955     -2.538E+00 2.225E-01 3.125E+04
 ETOT  8   14.363317849649      2.973E-01 4.758E-02 4.744E+04
 ETOT  9   14.921756012146      5.584E-01 4.249E-02 2.580E+04
 ETOT 10   14.596488351078     -3.253E-01 1.846E-02 3.960E+04
 ETOT 11   16.321764624051      1.725E+00 5.268E-02 2.153E+04
 ETOT 12   12.131640516575     -4.190E+00 9.783E-02 1.549E+04
 ETOT 13   14.507337640159      2.376E+00 6.963E-02 1.011E+04
 ETOT 14   11.231975949926     -3.275E+00 1.270E-01 7.199E+03
 ETOT 15   10.938907177906     -2.931E-01 1.107E-02 6.735E+02
 ETOT 16   10.908680625690     -3.023E-02 3.571E-03 1.450E+03
 ETOT 17   10.766894586907     -1.418E-01 5.010E-03 2.899E+02
 ETOT 18   10.817193199608      5.030E-02 1.560E-03 5.333E+02
 ETOT 19   10.881520687399      6.433E-02 7.488E-04 6.023E+02
 ETOT 20   10.861320340932     -2.020E-02 4.416E-03 1.663E+03
 ETOT 21   10.728731489835     -1.326E-01 3.257E-03 2.362E+02
 ETOT 22   10.716796604633     -1.193E-02 1.476E-03 4.252E+01
 ETOT 23   10.711154985300     -5.642E-03 1.759E-04 1.490E+01
 ETOT 24   10.711514491708      3.595E-04 1.309E-04 1.544E+01
 ETOT 25   10.710604981695     -9.095E-04 1.610E-05 1.478E+01
 ETOT 26   10.709168852953     -1.436E-03 2.223E-05 4.123E+00
 ETOT 27   10.708791178112     -3.777E-04 2.083E-05 6.751E-01
 ETOT 28   10.708631153072     -1.600E-04 7.861E-06 4.999E-01
 ETOT 29   10.708602996806     -2.816E-05 2.595E-06 3.493E-01
 ETOT 30   10.708611063799      8.067E-06 1.613E-06 6.038E-01
 ETOT 31   10.708620945446      9.882E-06 8.443E-07 8.014E-01
 ETOT 32   10.708614851336     -6.094E-06 5.303E-07 3.996E-01
 ETOT 33   10.708614501350     -3.500E-07 2.336E-07 5.972E-01
 ETOT 34   10.708593565882     -2.094E-05 2.077E-07 2.399E-01
 ETOT 35   10.708587356886     -6.209E-06 2.322E-07 8.005E-02
 ETOT 36   10.708586023856     -1.333E-06 1.221E-07 2.882E-02
 ETOT 37   10.708584825867     -1.198E-06 2.929E-08 1.502E-02
 ETOT 38   10.708584280843     -5.450E-07 3.071E-08 2.259E-03
 ETOT 39   10.708584143678     -1.372E-07 6.168E-09 1.847E-03
 ETOT 40   10.708584066822     -7.686E-08 3.200E-09 1.378E-04
 ETOT 41   10.708584063713     -3.109E-09 1.784E-09 1.106E-04
 ETOT 42   10.708584060395     -3.319E-09 6.467E-10 3.134E-05
 ETOT 43   10.708584061936      1.542E-09 4.341E-10 5.082E-05
 ETOT 44   10.708584061633     -3.029E-10 2.112E-10 4.602E-05
 ETOT 45   10.708584062202      5.684E-10 1.081E-10 4.807E-05
 ETOT 46   10.708584062453      2.510E-10 6.055E-11 5.495E-05
 ETOT 47   10.708584056148     -6.305E-09 4.233E-11 1.332E-05
 ETOT 48   10.708584055654     -4.939E-10 8.242E-12 8.240E-06
 ETOT 49   10.708584054355     -1.300E-09 8.508E-12 5.751E-07
 ETOT 50   10.708584054273     -8.185E-11 2.224E-12 5.442E-07
 ETOT 51   10.708584054234     -3.911E-11 1.971E-13 2.451E-07
 ETOT 52   10.708584054227     -6.366E-12 3.626E-13 3.409E-08
 ETOT 53   10.708584054234      6.366E-12 2.880E-14 3.653E-08
 ETOT 54   10.708584054239      5.457E-12 6.397E-14 1.010E-07
 ETOT 55   10.708584054223     -1.637E-11 2.728E-14 4.075E-08
 ETOT 56   10.708584054286      6.366E-11 3.612E-13 4.394E-07
 ETOT 57   10.708584054201     -8.549E-11 2.458E-13 3.802E-08
 ETOT 58   10.708584054194     -7.276E-12 3.379E-15 6.684E-08
 ETOT 59   10.708584054234      4.002E-11 3.923E-14 2.086E-08
 ETOT 60   10.708584054237      3.638E-12 9.028E-15 2.018E-08
 ETOT 61   10.708584054151     -8.640E-11 6.810E-15 1.440E-08
 ETOT 62   10.708584054215      6.457E-11 2.570E-15 6.248E-09

 At SCF step   62       vres2   =  6.25E-09 < tolvrs=  1.00E-08 =>converged.
================================================================================

 ----iterations are completed or convergence reached----

 Mean square residual over all n,k,spin=   2.6201E-16; max=  2.5702E-15
   0.0625  0.0625  0.0625    1  1.65136E-15 kpt; spin; max resid(k); each band:
 2.79E-17 4.58E-17 1.87E-17 1.44E-17 1.98E-18 3.75E-17 8.35E-17 6.19E-17
 3.78E-17 5.62E-18 5.69E-18 1.21E-15 9.52E-16 1.68E-16 1.57E-16 1.98E-16
 3.69E-17 1.47E-15 1.65E-15 1.30E-16
   0.1875  0.0625  0.0625    1  7.75561E-16 kpt; spin; max resid(k); each band:
 2.26E-17 2.52E-17 4.91E-17 1.72E-17 4.10E-18 4.26E-17 4.79E-17 6.69E-17
 6.80E-18 3.05E-17 1.02E-17 3.21E-16 5.02E-16 3.57E-16 1.77E-16 5.37E-17
 1.16E-16 7.76E-16 4.78E-16 6.44E-16
   0.3125  0.0625  0.0625    1  9.78919E-16 kpt; spin; max resid(k); each band:
 1.58E-17 2.22E-17 1.52E-17 4.72E-17 2.55E-18 5.66E-17 6.47E-17 7.05E-17
 1.90E-17 1.10E-17 2.37E-17 1.89E-17 5.04E-16 3.22E-16 2.32E-16 1.82E-16
 4.04E-17 2.84E-16 9.79E-16 9.64E-16
   0.4375  0.0625  0.0625    1  6.08423E-16 kpt; spin; max resid(k); each band:
 1.68E-17 2.03E-17 4.32E-17 1.57E-17 2.08E-18 6.79E-17 4.55E-17 7.13E-17
 9.49E-18 1.63E-17 3.69E-17 1.86E-16 4.22E-16 3.79E-16 3.71E-16 7.53E-17
 9.06E-18 2.76E-16 6.08E-16 5.66E-16
  -0.4375  0.0625  0.0625    1  8.78167E-16 kpt; spin; max resid(k); each band:
 1.83E-17 1.87E-17 3.08E-17 1.58E-17 2.92E-18 7.80E-17 3.48E-17 6.13E-17
 2.29E-18 1.41E-17 5.02E-17 5.24E-16 3.67E-16 3.78E-16 2.68E-16 1.88E-17
 2.17E-16 7.84E-16 8.78E-16 6.86E-16
  -0.3125  0.0625  0.0625    1  1.43665E-15 kpt; spin; max resid(k); each band:
 2.34E-17 1.12E-17 1.59E-17 1.80E-17 3.04E-18 8.72E-17 3.15E-17 3.12E-17
 5.02E-18 1.76E-17 4.95E-17 8.48E-16 7.27E-16 1.80E-16 4.38E-16 1.33E-17
 8.92E-16 1.13E-15 1.14E-15 1.44E-15
  -0.1875  0.0625  0.0625    1  2.04548E-15 kpt; spin; max resid(k); each band:
 2.82E-17 1.89E-17 2.91E-17 1.77E-17 2.60E-18 7.26E-17 7.25E-17 5.15E-18
 2.21E-17 2.32E-17 2.24E-17 9.74E-16 1.26E-15 4.06E-16 1.38E-17 1.21E-15
 1.03E-15 5.55E-16 2.05E-15 1.42E-15
  -0.0625  0.0625  0.0625    1  2.19809E-15 kpt; spin; max resid(k); each band:
 2.92E-17 1.52E-17 2.16E-17 3.91E-17 2.26E-18 5.25E-17 8.51E-17 4.78E-17
 3.74E-17 1.88E-17 2.40E-18 6.04E-17 8.30E-16 1.17E-15 8.03E-16 8.50E-17
 6.67E-16 1.88E-16 2.20E-15 1.46E-15
   0.0625  0.1875  0.0625    1  1.43447E-15 kpt; spin; max resid(k); each band:
 1.50E-17 4.47E-17 3.86E-17 1.38E-17 2.09E-18 3.27E-17 1.38E-16 7.84E-17
 3.21E-17 1.47E-17 9.60E-18 1.13E-15 9.30E-16 4.06E-16 8.30E-17 3.77E-16
 7.41E-17 8.99E-16 1.43E-15 3.15E-16
   0.1875  0.1875  0.0625    1  8.74318E-16 kpt; spin; max resid(k); each band:
 1.44E-17 3.93E-17 1.59E-17 2.73E-17 5.06E-18 3.55E-17 7.27E-17 8.61E-17
 2.11E-17 2.15E-17 9.34E-18 8.30E-16 5.43E-16 8.07E-16 2.48E-16 6.30E-17
 8.74E-16 6.89E-17 8.34E-16 3.21E-16
   0.3125  0.1875  0.0625    1  9.31627E-16 kpt; spin; max resid(k); each band:
 1.49E-17 2.17E-17 4.24E-17 1.79E-17 5.00E-18 4.92E-17 8.16E-17 7.29E-17
 2.71E-17 1.61E-17 1.39E-17 9.05E-17 8.34E-16 7.36E-16 5.13E-16 1.46E-16
 6.16E-16 1.93E-16 9.32E-16 2.76E-16
   0.4375  0.1875  0.0625    1  7.41487E-16 kpt; spin; max resid(k); each band:
 1.64E-17 1.91E-17 3.72E-17 1.70E-17 2.44E-18 6.33E-17 9.14E-17 6.68E-17
 3.14E-17 2.71E-17 1.90E-17 1.27E-16 4.72E-16 6.94E-16 5.15E-16 1.06E-16
 2.06E-16 6.98E-16 7.41E-16 2.06E-16
  -0.4375  0.1875  0.0625    1  1.17318E-15 kpt; spin; max resid(k); each band:
 1.78E-17 1.52E-17 2.52E-17 2.38E-17 2.74E-18 7.58E-17 9.02E-17 5.40E-17
 1.68E-17 1.29E-17 5.27E-17 4.37E-16 1.07E-16 1.17E-15 5.60E-16 1.21E-16
 5.30E-16 7.52E-16 1.06E-15 7.63E-16
  -0.3125  0.1875  0.0625    1  1.43133E-15 kpt; spin; max resid(k); each band:
 1.87E-17 1.04E-17 1.68E-17 3.48E-17 2.64E-18 8.86E-17 8.51E-17 4.02E-17
 1.48E-17 1.12E-17 4.68E-17 6.27E-16 1.38E-15 9.14E-16 7.00E-16 2.60E-16
 7.04E-16 3.80E-16 1.43E-15 1.16E-15
  -0.1875  0.1875  0.0625    1  1.99948E-15 kpt; spin; max resid(k); each band:
 1.79E-17 1.52E-17 2.20E-17 4.07E-17 2.31E-18 7.64E-17 4.72E-17 7.68E-17
 2.13E-17 1.58E-17 2.04E-17 2.79E-16 1.18E-15 1.04E-15 9.80E-17 8.80E-16
 3.15E-16 7.55E-16 2.00E-15 1.37E-15
  -0.0625  0.1875  0.0625    1  1.92526E-15 kpt; spin; max resid(k); each band:
 1.62E-17 3.66E-17 1.53E-17 3.92E-17 2.15E-18 4.97E-17 1.18E-16 7.97E-17
 3.47E-17 1.47E-17 7.33E-18 8.59E-16 8.47E-16 1.11E-15 4.65E-16 2.54E-16
 3.58E-16 2.94E-16 1.42E-15 1.93E-15
   0.0625  0.3125  0.0625    1  9.98221E-16 kpt; spin; max resid(k); each band:
 1.58E-17 4.47E-17 1.40E-17 3.20E-17 2.11E-18 3.40E-17 6.13E-17 8.04E-17
 1.49E-17 2.06E-17 1.91E-17 9.98E-16 9.32E-16 2.89E-16 5.32E-16 9.62E-17
 6.93E-17 3.34E-16 9.45E-16 4.42E-16
   0.1875  0.3125  0.0625    1  9.40777E-16 kpt; spin; max resid(k); each band:
 1.52E-17 4.39E-17 2.03E-17 1.61E-17 2.16E-18 3.18E-17 1.38E-16 8.39E-17
 1.50E-17 3.56E-17 8.81E-18 9.41E-16 4.52E-16 1.89E-16 7.68E-16 1.23E-16
 3.00E-16 4.19E-17 8.57E-16 2.93E-16
   0.3125  0.3125  0.0625    1  8.43490E-16 kpt; spin; max resid(k); each band:
 1.55E-17 3.58E-17 1.60E-17 2.35E-17 2.39E-18 3.85E-17 8.70E-17 8.50E-17
 3.15E-17 2.07E-17 4.79E-18 6.26E-16 6.63E-16 2.24E-16 6.63E-16 3.15E-17
 3.77E-16 8.43E-16 7.92E-17 1.67E-16
   0.4375  0.3125  0.0625    1  1.02210E-15 kpt; spin; max resid(k); each band:
 1.92E-17 1.48E-17 3.06E-17 3.97E-17 2.51E-18 5.26E-17 9.04E-17 7.13E-17
 3.14E-17 2.71E-17 3.53E-18 1.42E-16 2.30E-16 9.08E-16 5.33E-16 1.29E-16
 1.02E-15 3.06E-16 1.63E-16 1.12E-16
  -0.4375  0.3125  0.0625    1  1.09388E-15 kpt; spin; max resid(k); each band:
 2.46E-17 1.08E-17 2.06E-17 4.48E-17 2.40E-18 7.40E-17 7.94E-17 1.02E-16
 2.29E-17 3.19E-17 1.22E-17 2.21E-16 8.03E-17 1.09E-15 5.77E-16 1.93E-16
 5.26E-16 4.60E-16 1.82E-16 4.47E-16
  -0.3125  0.3125  0.0625    1  1.57981E-15 kpt; spin; max resid(k); each band:
 2.76E-17 1.38E-17 1.54E-17 4.73E-17 2.00E-18 5.33E-17 4.08E-17 7.12E-17
 1.98E-17 1.80E-17 3.10E-17 3.96E-16 1.19E-15 2.17E-16 6.82E-16 4.32E-16
 4.53E-16 1.58E-15 2.09E-16 8.67E-16
  -0.1875  0.3125  0.0625    1  2.05486E-15 kpt; spin; max resid(k); each band:
 2.62E-17 2.65E-17 1.22E-17 4.90E-17 1.71E-18 7.69E-17 2.52E-17 7.99E-17
 1.41E-17 1.77E-17 2.19E-17 7.50E-16 1.31E-15 1.18E-15 6.06E-16 7.65E-16
 2.36E-16 2.33E-16 2.05E-15 1.13E-15
  -0.0625  0.3125  0.0625    1  1.34833E-15 kpt; spin; max resid(k); each band:
 2.09E-17 4.03E-17 3.73E-17 1.82E-17 1.84E-18 9.28E-17 2.79E-17 7.35E-17
 4.71E-18 2.96E-17 1.79E-17 9.47E-16 6.03E-16 1.24E-15 2.37E-16 2.58E-16
 1.70E-16 3.63E-16 9.21E-16 1.35E-15
   0.0625  0.4375  0.0625    1  1.08627E-15 kpt; spin; max resid(k); each band:
 2.71E-17 4.31E-17 2.09E-17 1.31E-17 2.67E-18 5.91E-17 1.49E-16 6.46E-17
 1.27E-17 6.61E-18 2.52E-17 8.85E-16 7.54E-16 2.64E-16 2.79E-16 1.16E-16
 8.32E-17 3.43E-16 1.09E-15 5.36E-16
   0.1875  0.4375  0.0625    1  8.98323E-16 kpt; spin; max resid(k); each band:
 1.66E-17 3.97E-17 1.47E-17 2.40E-17 2.55E-18 5.39E-17 1.66E-16 6.61E-17
 1.17E-17 2.24E-17 7.62E-18 8.98E-16 1.84E-16 5.95E-17 7.63E-16 1.21E-16
 1.65E-16 3.72E-16 5.58E-16 4.92E-16
   0.3125  0.4375  0.0625    1  1.03391E-15 kpt; spin; max resid(k); each band:
 1.67E-17 3.00E-17 1.37E-17 4.32E-17 2.55E-18 2.68E-17 8.10E-17 6.74E-17
 2.34E-17 2.55E-17 3.38E-18 7.91E-16 1.48E-16 2.60E-16 5.41E-16 1.43E-16
 1.03E-15 1.83E-16 1.21E-16 5.03E-16
   0.4375  0.4375  0.0625    1  1.08705E-15 kpt; spin; max resid(k); each band:
 2.33E-17 1.42E-17 1.75E-17 4.75E-17 2.45E-18 4.78E-17 8.19E-17 6.74E-17
 3.42E-17 1.90E-17 3.54E-18 3.59E-16 1.31E-16 2.58E-16 3.16E-16 5.74E-17
 1.09E-15 1.48E-16 9.38E-17 2.19E-16
  -0.4375  0.4375  0.0625    1  1.56760E-15 kpt; spin; max resid(k); each band:
 3.21E-17 1.50E-17 1.44E-17 4.90E-17 2.11E-18 8.24E-17 4.69E-17 7.82E-17
 2.08E-17 4.13E-17 5.32E-18 3.61E-16 1.24E-16 4.06E-16 1.38E-16 2.56E-16
 1.57E-15 2.42E-16 1.48E-16 2.40E-16
  -0.3125  0.4375  0.0625    1  1.42840E-15 kpt; spin; max resid(k); each band:
 3.61E-17 2.20E-17 1.15E-17 5.05E-17 1.54E-18 9.51E-17 8.37E-18 7.49E-17
 1.57E-17 3.65E-17 8.41E-18 6.83E-16 1.94E-16 1.16E-15 5.13E-16 2.97E-16
 1.43E-15 7.73E-16 3.95E-16 5.18E-16
  -0.1875  0.4375  0.0625    1  2.01460E-15 kpt; spin; max resid(k); each band:
 3.58E-17 3.74E-17 1.06E-17 5.14E-17 1.45E-18 7.07E-17 6.50E-17 6.36E-17
 7.33E-18 2.09E-17 2.10E-17 4.95E-16 1.54E-16 1.54E-15 1.02E-15 3.49E-16
 2.85E-16 4.32E-16 2.01E-15 7.11E-16
  -0.0625  0.4375  0.0625    1  1.89443E-15 kpt; spin; max resid(k); each band:
 3.26E-17 4.33E-17 2.99E-17 3.31E-17 2.09E-18 7.72E-17 1.16E-16 6.34E-17
 1.53E-18 2.03E-17 2.74E-17 9.88E-16 3.38E-16 1.14E-15 1.29E-16 1.14E-16
 1.06E-16 6.68E-16 1.02E-15 1.89E-15
   0.0625 -0.4375  0.0625    1  9.60978E-16 kpt; spin; max resid(k); each band:
 3.21E-17 3.61E-17 1.59E-17 1.35E-17 2.99E-18 6.37E-17 6.70E-17 4.36E-17
 6.19E-18 4.21E-18 1.99E-17 9.00E-16 7.12E-16 2.98E-16 2.17E-16 1.69E-16
 1.01E-16 5.90E-16 9.61E-16 6.92E-16
   0.1875 -0.4375  0.0625    1  1.13439E-15 kpt; spin; max resid(k); each band:
 2.18E-17 2.69E-17 1.14E-17 3.86E-17 2.57E-18 8.28E-17 1.69E-16 3.97E-17
 7.88E-18 2.60E-18 1.84E-17 7.09E-16 2.10E-16 5.71E-17 6.71E-16 1.36E-16
 8.36E-17 6.26E-16 8.20E-16 1.13E-15
   0.3125 -0.4375  0.0625    1  1.32329E-15 kpt; spin; max resid(k); each band:
 1.87E-17 1.86E-17 1.24E-17 4.84E-17 2.25E-18 6.17E-17 6.71E-17 4.54E-17
 1.23E-17 1.33E-17 8.21E-18 5.17E-16 2.17E-16 1.55E-16 5.09E-16 1.08E-16
 1.12E-15 3.32E-16 2.62E-16 1.32E-15
   0.4375 -0.4375  0.0625    1  1.45179E-15 kpt; spin; max resid(k); each band:
 2.22E-17 1.43E-17 1.41E-17 5.09E-17 2.07E-18 8.02E-17 3.78E-17 7.40E-17
 1.21E-17 2.12E-17 5.98E-18 2.39E-16 1.56E-16 7.13E-16 1.44E-16 2.18E-16
 1.45E-15 1.33E-16 2.64E-16 6.61E-16
  -0.4375 -0.4375  0.0625    1  1.77942E-15 kpt; spin; max resid(k); each band:
 3.34E-17 1.47E-17 1.49E-17 5.29E-17 1.80E-18 9.73E-17 7.29E-17 4.27E-18
 3.00E-17 1.77E-17 7.61E-18 1.95E-16 1.82E-16 9.50E-16 2.59E-16 1.08E-16
 1.78E-15 2.21E-16 2.05E-16 3.28E-16
  -0.3125 -0.4375  0.0625    1  1.86410E-15 kpt; spin; max resid(k); each band:
 3.89E-17 3.13E-17 1.12E-17 5.27E-17 1.42E-18 9.73E-17 6.26E-17 2.80E-17
 2.39E-17 2.37E-17 1.16E-17 5.14E-16 2.45E-16 1.22E-15 4.87E-16 7.81E-17
 1.86E-15 5.28E-16 6.79E-16 3.84E-16
  -0.1875 -0.4375  0.0625    1  2.03142E-15 kpt; spin; max resid(k); each band:
 3.91E-17 4.07E-17 1.35E-17 5.17E-17 1.59E-18 6.69E-17 5.18E-17 4.32E-17
 1.27E-17 1.26E-17 2.85E-17 7.66E-16 1.99E-16 1.24E-15 8.86E-16 1.43E-16
 1.91E-16 8.73E-16 2.03E-15 9.08E-16
  -0.0625 -0.4375  0.0625    1  2.04179E-15 kpt; spin; max resid(k); each band:
 3.62E-17 4.12E-17 3.39E-17 2.65E-17 2.54E-18 2.70E-17 5.77E-17 4.64E-17
 6.56E-18 8.08E-18 2.31E-17 9.33E-16 3.47E-16 1.25E-15 5.42E-17 1.94E-16
 1.47E-16 7.39E-16 1.09E-15 2.04E-15
   0.0625 -0.3125  0.0625    1  9.54225E-16 kpt; spin; max resid(k); each band:
 3.42E-17 1.81E-17 1.49E-17 1.54E-17 2.60E-18 4.79E-17 7.03E-17 2.32E-17
 1.81E-18 7.45E-18 1.54E-17 8.53E-16 7.64E-16 3.38E-16 2.00E-16 1.95E-16
 4.43E-16 8.90E-16 9.05E-16 9.54E-16
   0.1875 -0.3125  0.0625    1  1.22194E-15 kpt; spin; max resid(k); each band:
 2.60E-17 1.58E-17 1.04E-17 4.41E-17 1.99E-18 5.67E-17 1.47E-16 2.51E-17
 1.46E-18 6.37E-18 1.35E-17 5.18E-16 7.52E-17 2.71E-16 6.96E-16 1.76E-16
 1.77E-16 3.87E-16 1.22E-15 1.19E-15
   0.3125 -0.3125  0.0625    1  1.29444E-15 kpt; spin; max resid(k); each band:
 1.62E-17 1.36E-17 1.31E-17 5.07E-17 1.60E-18 6.87E-17 1.37E-17 6.20E-17
 2.73E-18 8.74E-18 7.37E-18 1.47E-16 2.32E-16 1.23E-16 5.31E-16 2.14E-16
 2.62E-16 6.80E-16 3.03E-16 1.29E-15
   0.4375 -0.3125  0.0625    1  9.13220E-16 kpt; spin; max resid(k); each band:
 1.92E-17 1.01E-17 1.74E-17 5.29E-17 1.52E-18 7.75E-17 1.13E-17 7.64E-17
 3.87E-18 1.80E-17 5.60E-18 1.12E-16 1.61E-16 3.29E-16 2.85E-16 3.96E-16
 9.13E-16 3.92E-16 3.21E-16 7.43E-16
  -0.4375 -0.3125  0.0625    1  1.50432E-15 kpt; spin; max resid(k); each band:
 3.22E-17 1.14E-17 2.12E-17 5.44E-17 1.56E-18 8.82E-17 4.54E-17 4.95E-17
 1.05E-17 1.68E-17 1.58E-17 2.93E-16 2.29E-16 3.87E-16 2.52E-16 3.28E-16
 1.50E-15 2.97E-16 3.08E-16 3.90E-16
  -0.3125 -0.3125  0.0625    1  1.71522E-15 kpt; spin; max resid(k); each band:
 3.93E-17 1.78E-17 1.72E-17 5.31E-17 1.62E-18 9.61E-17 4.86E-17 3.05E-17
 2.46E-17 1.36E-17 2.68E-17 1.71E-16 1.08E-15 2.12E-16 5.18E-16 1.56E-16
 8.38E-16 1.72E-15 5.23E-16 2.31E-16
  -0.1875 -0.3125  0.0625    1  2.22891E-15 kpt; spin; max resid(k); each band:
 4.05E-17 2.32E-17 1.35E-17 4.90E-17 1.98E-18 7.09E-17 5.49E-17 2.67E-17
 2.13E-17 8.00E-18 2.48E-17 3.41E-16 9.84E-16 1.36E-15 4.25E-16 1.78E-16
 5.04E-16 8.06E-16 2.23E-15 1.18E-15
  -0.0625 -0.3125  0.0625    1  2.10594E-15 kpt; spin; max resid(k); each band:
 3.79E-17 1.81E-17 1.98E-17 3.39E-17 2.61E-18 5.27E-17 6.15E-17 1.98E-17
 1.65E-17 4.09E-18 1.94E-17 8.10E-16 4.22E-16 1.44E-15 1.33E-16 8.67E-16
 2.88E-16 6.18E-16 9.40E-16 2.11E-15
   0.0625 -0.1875  0.0625    1  1.20686E-15 kpt; spin; max resid(k); each band:
 3.41E-17 1.87E-17 3.58E-17 1.57E-17 1.92E-18 4.00E-17 7.17E-17 1.93E-17
 7.31E-18 4.29E-18 2.15E-17 1.12E-15 8.12E-16 5.15E-16 1.92E-16 3.44E-16
 7.34E-16 7.53E-16 1.06E-15 1.21E-15
   0.1875 -0.1875  0.0625    1  1.14930E-15 kpt; spin; max resid(k); each band:
 2.74E-17 1.41E-17 2.05E-17 4.68E-17 1.35E-18 4.45E-17 8.07E-17 6.95E-17
 2.03E-18 7.25E-18 1.53E-17 4.77E-16 4.35E-16 6.82E-16 3.00E-16 2.80E-16
 1.78E-16 4.10E-16 1.08E-15 1.15E-15
 outwf : prtvol=0 or 1, do not print more k-points.


 Thirteen components of 2nd-order total energy (hartree) are
 1,2,3: 0th-order hamiltonian combined with 1st-order wavefunctions
     kin0=   7.39031590E+03 eigvalue=   8.36539251E+02  local=  -6.80418268E+03
 4,5,6: 1st-order hamiltonian combined with 1st and 0th-order wfs
 loc psp =  -7.86882687E+03  Hartree=   1.50988816E+03     xc=  -3.19103855E+02
 note that "loc psp" includes a xc core correction that could be resolved
[...]
   2    2   3    5        -0.0350533983        -0.0350533983
  
   3    2   1    1        -0.0341512227         0.0341512227
   3    2   2    1        -0.0341512227         0.0341512227
   3    2   3    1         0.0015276452        -0.0015276452
   3    2   1    2         0.0444363039         0.0000000000
   3    2   2    2         0.0444363039         0.0000000000
   3    2   3    2         0.1932797626         0.0000000000
   3    2   1    3        -0.0350534627        -0.0350534627
   3    2   2    3        -0.0053177702        -0.0053177702
   3    2   3    3        -0.0194072462        -0.0194072462
   3    2   1    4        -0.0053177702        -0.0053177702
   3    2   2    4        -0.0350534627        -0.0350534627
   3    2   3    4        -0.0194072462        -0.0194072462
   3    2   1    5        -0.0070587448        -0.0070587448
   3    2   2    5        -0.0070587448        -0.0070587448
   3    2   3    5        -0.0191480712        -0.0191480712
  
   1    3   1    1         0.0000000000        -0.0195190414
   1    3   2    1         0.0000000000        -0.0124172769
   1    3   3    1         0.0000000000        -0.0124172769
   1    3   1    2        -0.0191480009         0.0191480009
   1    3   2    2        -0.0350534627         0.0350534627
   1    3   3    2        -0.0350534627         0.0350534627
   1    3   1    3         0.1752793615         0.0000000000
   1    3   2    3         0.0099122654         0.0000000000
   1    3   3    3         0.0099121078         0.0000000000
   1    3   1    4        -0.0176550727         0.0000000000
   1    3   2    4         0.0683117853         0.0000000000
   1    3   3    4         0.0058482613         0.0000000000
   1    3   1    5        -0.0176550727         0.0000000000
   1    3   2    5         0.0058482613         0.0000000000
   1    3   3    5         0.0683117853         0.0000000000
  
   2    3   1    1         0.0000000000        -0.0046828010
   2    3   2    1         0.0000000000        -0.0077830998
   2    3   3    1         0.0000000000        -0.0026134254
   2    3   1    2        -0.0070587363         0.0070587363
   2    3   2    2        -0.0194072271         0.0194072271
   2    3   3    2        -0.0053177702         0.0053177702
   2    3   1    3         0.0099121078         0.0000000000
   2    3   2    3         0.0729050083         0.0000000000
   2    3   3    3         0.0068170786         0.0000000000
   2    3   1    4         0.0272497615         0.0000000000
   2    3   2    4        -0.0176549738         0.0000000000
   2    3   3    4         0.0030673507         0.0000000000
   2    3   1    5         0.0030673524         0.0000000000
   2    3   2    5         0.0068793417         0.0000000000
   2    3   3    5         0.0058483844         0.0000000000
  
   3    3   1    1         0.0000000000        -0.0046828010
   3    3   2    1         0.0000000000        -0.0026134991
   3    3   3    1         0.0000000000        -0.0077831780
   3    3   1    2        -0.0070587363         0.0070587363
   3    3   2    2        -0.0053177597         0.0053177597
   3    3   3    2        -0.0194072462         0.0194072462
   3    3   1    3         0.0099121078         0.0000000000
   3    3   2    3         0.0068170786         0.0000000000
   3    3   3    3         0.0729050083         0.0000000000
   3    3   1    4         0.0030673507         0.0000000000
   3    3   2    4         0.0058482613         0.0000000000
   3    3   3    4         0.0068793417         0.0000000000
   3    3   1    5         0.0272497615         0.0000000000
   3    3   2    5         0.0030673507         0.0000000000
   3    3   3    5        -0.0176550727         0.0000000000
  
   1    4   1    1         0.0000000000        -0.0077831780
   1    4   2    1         0.0000000000        -0.0046828010
   1    4   3    1         0.0000000000        -0.0026134254
   1    4   1    2        -0.0194072462         0.0194072462
   1    4   2    2        -0.0070587363         0.0070587363
   1    4   3    2        -0.0053177702         0.0053177702
   1    4   1    3        -0.0176550727         0.0000000000
   1    4   2    3         0.0272497615         0.0000000000
   1    4   3    3         0.0030673507         0.0000000000
   1    4   1    4         0.0729050083         0.0000000000
   1    4   2    4         0.0099121078         0.0000000000
   1    4   3    4         0.0068170786         0.0000000000
   1    4   1    5         0.0068793417         0.0000000000
   1    4   2    5         0.0030673524         0.0000000000
   1    4   3    5         0.0058483844         0.0000000000
  
   2    4   1    1         0.0000000000        -0.0124172590
   2    4   2    1         0.0000000000        -0.0195190414
   2    4   3    1         0.0000000000        -0.0124172769
   2    4   1    2        -0.0350533983         0.0350533983
   2    4   2    2        -0.0191480009         0.0191480009
   2    4   3    2        -0.0350534627         0.0350534627
   2    4   1    3         0.0683117853         0.0000000000
   2    4   2    3        -0.0176549738         0.0000000000
   2    4   3    3         0.0058482613         0.0000000000
   2    4   1    4         0.0099122654         0.0000000000
   2    4   2    4         0.1752793615         0.0000000000
   2    4   3    4         0.0099121078         0.0000000000
   2    4   1    5         0.0058482613         0.0000000000
   2    4   2    5        -0.0176550727         0.0000000000
   2    4   3    5         0.0683117853         0.0000000000
  
   3    4   1    1         0.0000000000        -0.0026134991
   3    4   2    1         0.0000000000        -0.0046828010
   3    4   3    1         0.0000000000        -0.0077831780
   3    4   1    2        -0.0053177597         0.0053177597
   3    4   2    2        -0.0070587363         0.0070587363
   3    4   3    2        -0.0194072462         0.0194072462
   3    4   1    3         0.0058482613         0.0000000000
   3    4   2    3         0.0030673507         0.0000000000
   3    4   3    3         0.0068793417         0.0000000000
   3    4   1    4         0.0068170786         0.0000000000
   3    4   2    4         0.0099121078         0.0000000000
   3    4   3    4         0.0729050083         0.0000000000
   3    4   1    5         0.0030673507         0.0000000000
   3    4   2    5         0.0272497615         0.0000000000
   3    4   3    5        -0.0176550727         0.0000000000
  
   1    5   1    1         0.0000000000        -0.0077831780
   1    5   2    1         0.0000000000        -0.0026134991
   1    5   3    1         0.0000000000        -0.0046828010
   1    5   1    2        -0.0194072462         0.0194072462
   1    5   2    2        -0.0053177597         0.0053177597
   1    5   3    2        -0.0070587363         0.0070587363
   1    5   1    3        -0.0176550727         0.0000000000
   1    5   2    3         0.0030673524         0.0000000000
   1    5   3    3         0.0272497615         0.0000000000
   1    5   1    4         0.0068793417         0.0000000000
   1    5   2    4         0.0058482613         0.0000000000
   1    5   3    4         0.0030673524         0.0000000000
   1    5   1    5         0.0729050083         0.0000000000
   1    5   2    5         0.0068170786         0.0000000000
   1    5   3    5         0.0099121078         0.0000000000
  
   2    5   1    1         0.0000000000        -0.0026134991
   2    5   2    1         0.0000000000        -0.0077831780
   2    5   3    1         0.0000000000        -0.0046828010
   2    5   1    2        -0.0053177597         0.0053177597
   2    5   2    2        -0.0194072462         0.0194072462
   2    5   3    2        -0.0070587363         0.0070587363
   2    5   1    3         0.0058482613         0.0000000000
   2    5   2    3         0.0068793417         0.0000000000
   2    5   3    3         0.0030673524         0.0000000000
   2    5   1    4         0.0030673524         0.0000000000
   2    5   2    4        -0.0176550727         0.0000000000
   2    5   3    4         0.0272497615         0.0000000000
   2    5   1    5         0.0068170786         0.0000000000
   2    5   2    5         0.0729050083         0.0000000000
   2    5   3    5         0.0099121078         0.0000000000
  
   3    5   1    1         0.0000000000        -0.0124172590
   3    5   2    1         0.0000000000        -0.0124172590
   3    5   3    1         0.0000000000        -0.0195190414
   3    5   1    2        -0.0350533983         0.0350533983
   3    5   2    2        -0.0350533983         0.0350533983
   3    5   3    2        -0.0191480009         0.0191480009
   3    5   1    3         0.0683117853         0.0000000000
   3    5   2    3         0.0058483844         0.0000000000
   3    5   3    3        -0.0176550727         0.0000000000
   3    5   1    4         0.0058483844         0.0000000000
   3    5   2    4         0.0683117853         0.0000000000
   3    5   3    4        -0.0176550727         0.0000000000
   3    5   1    5         0.0099122654         0.0000000000
   3    5   2    5         0.0099122654         0.0000000000
   3    5   3    5         0.1752793615         0.0000000000
 
  Phonon wavevector (reduced coordinates) :  0.25000  0.25000  0.25000
 Phonon energies in Hartree :
   5.045563E-04  5.045565E-04  5.453829E-04  1.046936E-03  1.046937E-03
   1.142862E-03  1.303185E-03  1.303185E-03  1.366541E-03  1.724017E-03
   1.724017E-03  2.122378E-03  2.122378E-03  2.191582E-03  3.392646E-03
 Phonon frequencies in cm-1    :
-  1.107373E+02  1.107374E+02  1.196977E+02  2.297760E+02  2.297761E+02
-  2.508292E+02  2.860160E+02  2.860160E+02  2.999211E+02  3.783779E+02
-  3.783779E+02  4.658081E+02  4.658082E+02  4.809967E+02  7.445998E+02

== END DATASET(S) ==============================================================
================================================================================
  
 -outvars: echo values of variables after computation  --------
     acell    7.4434230817E+00  7.4434230817E+00  7.4434230817E+00 Bohr
       amu    1.37327000E+02  4.78800000E+01  1.59994000E+01
    diemac    9.00000000E+00
      ecut    4.00000000E+01 Hartree
    etotal1   4.0392588150E+00
     fcart1   0.0000000000E+00  0.0000000000E+00  0.0000000000E+00
              0.0000000000E+00  0.0000000000E+00  0.0000000000E+00
              0.0000000000E+00  0.0000000000E+00  0.0000000000E+00
              0.0000000000E+00  0.0000000000E+00  0.0000000000E+00
              0.0000000000E+00  0.0000000000E+00  0.0000000000E+00
    irdwfk         1
      iscf         5
       ixc         3
    jdtset      1
       kpt    6.25000000E-02  6.25000000E-02  6.25000000E-02
              1.87500000E-01  6.25000000E-02  6.25000000E-02
              3.12500000E-01  6.25000000E-02  6.25000000E-02
              4.37500000E-01  6.25000000E-02  6.25000000E-02
             -4.37500000E-01  6.25000000E-02  6.25000000E-02
             -3.12500000E-01  6.25000000E-02  6.25000000E-02
             -1.87500000E-01  6.25000000E-02  6.25000000E-02
             -6.25000000E-02  6.25000000E-02  6.25000000E-02
              6.25000000E-02  1.87500000E-01  6.25000000E-02
              1.87500000E-01  1.87500000E-01  6.25000000E-02
              3.12500000E-01  1.87500000E-01  6.25000000E-02
              4.37500000E-01  1.87500000E-01  6.25000000E-02
             -4.37500000E-01  1.87500000E-01  6.25000000E-02
             -3.12500000E-01  1.87500000E-01  6.25000000E-02
             -1.87500000E-01  1.87500000E-01  6.25000000E-02
             -6.25000000E-02  1.87500000E-01  6.25000000E-02
              6.25000000E-02  3.12500000E-01  6.25000000E-02
              1.87500000E-01  3.12500000E-01  6.25000000E-02
              3.12500000E-01  3.12500000E-01  6.25000000E-02
              4.37500000E-01  3.12500000E-01  6.25000000E-02
             -4.37500000E-01  3.12500000E-01  6.25000000E-02
             -3.12500000E-01  3.12500000E-01  6.25000000E-02
             -1.87500000E-01  3.12500000E-01  6.25000000E-02
             -6.25000000E-02  3.12500000E-01  6.25000000E-02
              6.25000000E-02  4.37500000E-01  6.25000000E-02
              1.87500000E-01  4.37500000E-01  6.25000000E-02
              3.12500000E-01  4.37500000E-01  6.25000000E-02
              4.37500000E-01  4.37500000E-01  6.25000000E-02
             -4.37500000E-01  4.37500000E-01  6.25000000E-02
             -3.12500000E-01  4.37500000E-01  6.25000000E-02
             -1.87500000E-01  4.37500000E-01  6.25000000E-02
             -6.25000000E-02  4.37500000E-01  6.25000000E-02
              6.25000000E-02 -4.37500000E-01  6.25000000E-02
              1.87500000E-01 -4.37500000E-01  6.25000000E-02
              3.12500000E-01 -4.37500000E-01  6.25000000E-02
              4.37500000E-01 -4.37500000E-01  6.25000000E-02
             -4.37500000E-01 -4.37500000E-01  6.25000000E-02
             -3.12500000E-01 -4.37500000E-01  6.25000000E-02
             -1.87500000E-01 -4.37500000E-01  6.25000000E-02
             -6.25000000E-02 -4.37500000E-01  6.25000000E-02
              6.25000000E-02 -3.12500000E-01  6.25000000E-02
              1.87500000E-01 -3.12500000E-01  6.25000000E-02
              3.12500000E-01 -3.12500000E-01  6.25000000E-02
              4.37500000E-01 -3.12500000E-01  6.25000000E-02
             -4.37500000E-01 -3.12500000E-01  6.25000000E-02
             -3.12500000E-01 -3.12500000E-01  6.25000000E-02
             -1.87500000E-01 -3.12500000E-01  6.25000000E-02
             -6.25000000E-02 -3.12500000E-01  6.25000000E-02
              6.25000000E-02 -1.87500000E-01  6.25000000E-02
              1.87500000E-01 -1.87500000E-01  6.25000000E-02
                       outvar1 : prtvol=0, do not print more k-points.
   kptrlen    5.95473847E+01
    kptopt         3
  kptrlatt    8  0  0   0  8  0   0  0  8
P    mkmem       512
P   mkqmem       512
P   mk1mem       512
     natom         5
     nband        20
    ndtset         1
     ngfft        45      45      45
      nkpt       512
      nqpt         1
     nstep        70
      nsym        48
    ntypat         3
       occ    2.000000  2.000000  2.000000  2.000000  2.000000  2.000000
              2.000000  2.000000  2.000000  2.000000  2.000000  2.000000
              2.000000  2.000000  2.000000  2.000000  2.000000  2.000000
              2.000000  2.000000
 optdriver         1
       qpt    2.50000000E-01  2.50000000E-01  2.50000000E-01
   rfatpol         1       5
     rfdir         1       1       1
    rfphon         1
    shiftk    5.00000000E-01  5.00000000E-01  5.00000000E-01
   spgroup       221
    strten1   0.0000000000E+00  0.0000000000E+00  0.0000000000E+00
              0.0000000000E+00  0.0000000000E+00  0.0000000000E+00
    symrel    1  0  0   0  1  0   0  0  1      -1  0  0   0 -1  0   0  0 -1
             -1  0  0   0  1  0   0  0 -1       1  0  0   0 -1  0   0  0  1
             -1  0  0   0 -1  0   0  0  1       1  0  0   0  1  0   0  0 -1
              1  0  0   0 -1  0   0  0 -1      -1  0  0   0  1  0   0  0  1
              0  1  0   1  0  0   0  0  1       0 -1  0  -1  0  0   0  0 -1
              0 -1  0   1  0  0   0  0 -1       0  1  0  -1  0  0   0  0  1
              0 -1  0  -1  0  0   0  0  1       0  1  0   1  0  0   0  0 -1
              0  1  0  -1  0  0   0  0 -1       0 -1  0   1  0  0   0  0  1
              0  0  1   1  0  0   0  1  0       0  0 -1  -1  0  0   0 -1  0
              0  0 -1   1  0  0   0 -1  0       0  0  1  -1  0  0   0  1  0
              0  0 -1  -1  0  0   0  1  0       0  0  1   1  0  0   0 -1  0
              0  0  1  -1  0  0   0 -1  0       0  0 -1   1  0  0   0  1  0
              1  0  0   0  0  1   0  1  0      -1  0  0   0  0 -1   0 -1  0
             -1  0  0   0  0  1   0 -1  0       1  0  0   0  0 -1   0  1  0
             -1  0  0   0  0 -1   0  1  0       1  0  0   0  0  1   0 -1  0
              1  0  0   0  0 -1   0 -1  0      -1  0  0   0  0  1   0  1  0
              0  1  0   0  0  1   1  0  0       0 -1  0   0  0 -1  -1  0  0
              0 -1  0   0  0  1  -1  0  0       0  1  0   0  0 -1   1  0  0
              0 -1  0   0  0 -1   1  0  0       0  1  0   0  0  1  -1  0  0
              0  1  0   0  0 -1  -1  0  0       0 -1  0   0  0  1   1  0  0
              0  0  1   0  1  0   1  0  0       0  0 -1   0 -1  0  -1  0  0
              0  0 -1   0  1  0  -1  0  0       0  0  1   0 -1  0   1  0  0
              0  0 -1   0 -1  0   1  0  0       0  0  1   0  1  0  -1  0  0
              0  0  1   0 -1  0  -1  0  0       0  0 -1   0  1  0   1  0  0
    tolvrs    1.00000000E-08
     typat    1  2  3  3  3
       wtk      0.00195    0.00195    0.00195    0.00195    0.00195    0.00195
                0.00195    0.00195    0.00195    0.00195    0.00195    0.00195
                0.00195    0.00195    0.00195    0.00195    0.00195    0.00195
                0.00195    0.00195    0.00195    0.00195    0.00195    0.00195
                0.00195    0.00195    0.00195    0.00195    0.00195    0.00195
                0.00195    0.00195    0.00195    0.00195    0.00195    0.00195
                0.00195    0.00195    0.00195    0.00195    0.00195    0.00195
                0.00195    0.00195    0.00195    0.00195    0.00195    0.00195
                0.00195    0.00195
                outvar1 : prtvol=0, do not print more k-points.
    xangst    0.0000000000E+00  0.0000000000E+00  0.0000000000E+00
              1.9694449244E+00  1.9694449244E+00  1.9694449244E+00
              0.0000000000E+00  1.9694449244E+00  1.9694449244E+00
              1.9694449244E+00  0.0000000000E+00  1.9694449244E+00
              1.9694449244E+00  1.9694449244E+00  0.0000000000E+00
     xcart    0.0000000000E+00  0.0000000000E+00  0.0000000000E+00
              3.7217115408E+00  3.7217115408E+00  3.7217115408E+00
              0.0000000000E+00  3.7217115408E+00  3.7217115408E+00
              3.7217115408E+00  0.0000000000E+00  3.7217115408E+00
              3.7217115408E+00  3.7217115408E+00  0.0000000000E+00
      xred    0.0000000000E+00  0.0000000000E+00  0.0000000000E+00
              5.0000000000E-01  5.0000000000E-01  5.0000000000E-01
              0.0000000000E+00  5.0000000000E-01  5.0000000000E-01
              5.0000000000E-01  0.0000000000E+00  5.0000000000E-01
              5.0000000000E-01  5.0000000000E-01  0.0000000000E+00
     znucl     56.00000   22.00000    8.00000

================================================================================

- Total cpu        time (s,m,h):    -118668.5    -1977.81    -32.963
- Total wall clock time (s,m,h):      96079.5     1601.32     26.689

- For major independent code sections, cpu and wall times (sec),
- as well as % of the total time and number of calls 

- routine                 cpu     %       wall     %      number of calls 
-                                                          (-1=no count)
- fourwf(pot)        52679.351 -44.4  52683.329  54.8       10763645
- projbd              9908.905  -8.4   9911.978  10.3       19725690
- fourwf(G->r)        9450.997  -8.0   9451.339   9.8        3292160
- nonlop(apply)       9039.586  -7.6   9042.997   9.4        8962045
- cgwf3-O(npw)        2781.255  -2.3   2778.078   2.9             -1
- vtorho3-kpt loop    2072.666  -1.7   2072.892   2.2            216
- status              1820.403  -1.5   1820.092   1.9         970946
- nonlop(forces)      1519.399  -1.3   1518.475   1.6        2214400
- getghc-other        1008.093  -0.8    999.502   1.0             -1
- vtowfk3(contrib) -208086.668 175.4   6663.558   6.9             -1
- 60   others          852.390  -0.7    852.077   0.9

- subtotal         -116953.624  98.6  97794.317 101.8

================================================================================

 Calculation completed.
.Delivered   37 WARNINGs and   0 COMMENTs to log file.
+Overall time at end (sec) : cpu=    -118668.5  wall=      96079.5
